default_name
 43375
  44.5215020  45.7557883  48.2957041  44.4154164  44.8686604  48.7667148
  45.3771863  46.1902281  48.6106116  44.3573651  45.6207451  47.3083228
  43.4525020  46.6387883  48.7467041  43.8538588  47.5425508  49.2052074
  42.6225020  47.0417883  47.5017041  43.2523796  47.6731084  46.8749759
  42.3725218  46.1286081  46.9616005  41.3525020  47.7847883  47.8497041
  40.8623994  47.1080696  48.5496700  41.7241185  48.6567515  48.3879264
  40.1575020  48.3197883  46.6057041  40.9475020  49.8707883  46.1487041
  41.9482303  49.6704571  45.7659387  40.3569738  50.3667709  45.3783936
  41.0164785  50.5159013  47.0245881  42.8025020  45.9377883  49.9487041
  41.8515020  45.1557883  49.7287041  43.2855020  46.1747883  51.1357041
  44.0613773  46.8024010  51.2913288  42.7015020  45.5107883  52.2787041
  42.4318972  44.4858153  52.0240615  43.7045020  45.4797883  53.4097041
  44.5010410  46.1956329  53.2067478  43.2056788  45.7465555  54.3414287
  44.3115020  44.0497883  53.5367041  43.5425020  43.1857883  54.3407041
  42.5963324  43.4841946  54.7921642  44.0475020  41.8797883  54.5527041
  43.5662816  41.2620516  55.3109457  45.1785020  41.3737883  53.8257041
  45.5495020  40.0607883  53.9567041  44.9854162  39.5698833  54.5587168
  45.8705020  42.2257883  52.9647041  46.6739528  41.8627350  52.3237988
  45.5075020  43.5867883  52.9367041  46.1539357  44.3132359  52.4442639
  41.3985020  46.2427883  52.7807041  40.6875020  45.6287883  53.5927041
  41.1815020  47.4737883  52.4577041  41.9359779  47.9708929  52.0063148
  39.9725020  48.1637883  52.6947041  39.1372669  47.4772758  52.8332041
  40.1675020  48.9527883  53.9727041  39.2992815  49.6002356  54.0956039
  40.1761937  48.2033939  54.7641791  41.4485020  49.7947883  54.0517041
  41.6505020  50.6467883  53.1477041  42.2185020  49.6097883  55.0457041
  39.6405020  49.1117883  51.5257041  40.5095020  49.3977883  50.7487041
  38.4115020  49.6757883  51.4267041  37.7148591  49.4245165  52.1134723
  37.9705020  50.4937883  50.2127041  38.8295910  50.9349367  49.7072803
  37.2605020  49.5567883  49.2397041  38.0513515  48.9528813  48.7947855
  36.6247878  48.9233536  49.8583543  36.4455020  50.1747883  48.1637041
  35.6305020  49.5007883  47.4967041  36.5925020  51.3937883  47.9327041
  37.1935020  51.7967883  50.5947041  36.2925020  51.6037883  51.3797041
  37.5455020  53.0307883  50.2937041  38.7425020  53.3917883  49.5607041
  38.7528855  52.8314990  48.6257879  39.6083953  53.1122357  50.1608526
  38.6515020  54.8717883  49.3437041  38.0826500  55.1041443  48.4434169
  39.6420711  55.3210998  49.2730410  37.9525020  55.3297883  50.5537041
  37.4363864  56.2578136  50.3077516  38.5935443  55.4899125  51.4206093
  36.9135020  54.2117883  50.8607041  36.7332331  54.0273750  51.9197571
  35.5995020  54.5377883  50.1737041  34.8435020  55.4307883  50.6387041
  35.2805020  53.8897883  49.0437041  35.8744379  53.1180512  48.7758211
  34.0405020  54.1427883  48.2427041  33.8881307  55.2065920  48.0604853
  34.0215020  53.4137883  46.9087041  33.0510907  53.6164287  46.4555607
  35.1405020  53.8187883  45.9287041  36.1112770  53.6159951  46.3809986
  35.0425312  53.2448089  45.0072659  35.0600124  54.8823248  45.7039554
  34.0545020  52.0087883  47.0027041  34.0397402  51.6286850  46.1212826
  32.8205020  53.5257883  48.9667041  31.7315020  54.0667883  48.7117041
  32.8765020  52.4447883  49.7917041  33.8080190  52.1251695  50.0158008
  31.7265020  51.6407883  50.2627041  31.2179731  51.1487213  49.4336277
  32.2995020  50.5327883  51.2327041  32.6711856  51.1109066  52.0787123
  31.4691784  49.9061488  51.5582587  33.4215020  49.6487883  50.6877041
  34.1881947  50.3058750  50.2771921  34.0505020  48.7307883  51.7597041
  33.2844600  48.0730447  52.1703767  34.8395887  48.1303742  51.3069947
  34.4717999  49.3404458  52.5590327  32.8335020  48.8687883  49.5687041
  32.4671929  49.5517007  48.8021876  33.5947409  48.2169365  49.1400949
  32.0064677  48.2645288  49.9415094  30.6155020  52.4997883  50.8717041
  30.8865020  53.4437883  51.6037041  29.3135020  52.2997883  50.5237041
  28.8125020  51.2877883  49.5777041  29.0079042  50.3179253  50.0351799
  29.4125932  51.3899502  48.6735181  27.3645020  51.5197883  49.3267041
  26.8291274  50.5755251  49.2275066  27.2153710  52.1176132  48.4275564
  26.9105020  52.2997883  50.5937041  26.3982963  51.6094910  51.2639534
  26.2429769  53.1240324  50.3424443  28.1845020  52.8427883  51.2737041
  28.2005024  53.9296371  51.1924529  28.2625020  52.4327883  52.7787041
  29.0245020  51.5427883  53.2417041  27.3885020  53.0577883  53.6147041
  26.6213700  53.5722233  53.2060914  27.5455020  53.0877883  55.0497041
  28.5891636  53.2470428  55.3208271  26.7015020  54.2617883  55.6147041
  27.0245504  55.1438173  55.0617450  25.6690546  54.0284444  55.3545060
  26.8015020  54.5457883  57.1597041  26.5105660  55.5830200  57.3258587
  26.0954230  53.8857487  57.6635884  28.2015020  54.3147883  57.7197041
  29.1405020  54.8087883  57.0647041  28.3895020  53.6657883  58.7777041
  27.1375020  51.6897883  55.6707041  26.1315020  51.0587883  55.3297041
  27.9055020  51.1207883  56.6257041  28.6254761  51.6669037  57.0768078
  27.7295020  49.7057883  57.0427041  28.1542581  49.6256560  58.0433341
  26.6546102  49.5311726  57.0897819  28.3695020  48.6407883  56.1417041
  28.6805020  47.5837883  56.7077041  28.4555020  48.8307883  54.7817041
  27.9697944  49.5944804  54.3334166  29.2065020  47.9187883  53.9547041
  28.8913084  46.9101549  54.2219323  29.0445020  48.0947883  52.4777041
  29.4166813  48.8899694  51.8317407  29.5407638  47.1583184  52.2230504
  27.5705020  47.9127883  52.1397041  26.6355020  48.8807883  52.0507041
  26.9302079  49.8857308  52.3529270  25.4875020  48.3647883  51.5847041
  24.6083665  48.8620008  51.5845080  25.6705020  46.9897883  51.1987041
  24.8115020  45.9487883  50.7677041  23.7439483  46.1643188  50.8121377
  25.3685020  44.6867883  50.3027041  24.7562218  43.9004779  49.8611965
  26.7545020  44.4807883  50.4317041  27.2382015  43.5293731  50.2104726
  27.5395020  45.5167883  50.8537041  28.5849509  45.3677266  50.5836710
  27.0555020  46.7157883  51.4317041  30.7435020  48.0197883  54.2577041
  31.3575020  49.0867883  54.3597041  31.4495020  46.8897883  54.0807041
  30.9323625  46.0725696  53.7894657  32.8685020  46.7177883  54.4867041
  33.4638198  47.5575139  54.1281562  32.9225020  46.6977883  56.0227041
  32.4461974  47.5990303  56.4087056  32.1785020  45.4407883  56.5717041
  32.6545582  44.5390839  56.1864779  32.2237331  45.4379815  57.6607613
  31.1367765  45.4660111  56.2519036  34.2465020  46.6307883  56.5367041
  34.2171522  46.6212075  57.4962077  33.6015020  45.5267883  53.7537041
  33.0435020  44.4437883  53.5397041  34.8835020  45.7547883  53.4447041
  35.2646209  46.6647650  53.6610140  35.7415020  44.7887883  52.7617041
  35.1873447  44.0442827  52.1901096  36.5365020  45.6707883  51.7807041
  35.8651150  45.9928914  50.9847215  36.9034584  46.5433691  52.3211166
  37.7495020  44.8927883  51.1587041  38.4028786  44.5137654  51.9445423
  37.3967973  44.0617571  50.5478943  38.5145020  45.8627883  50.2937041
  38.4195804  46.8607845  50.7215971  39.5643123  45.5696331  50.2861085
  38.0115020  45.8967883  48.8707041  37.2090330  46.4885980  48.7097565
  38.6465020  45.4127883  47.8367041  39.7025020  44.6827883  47.9637041
  40.0591123  44.4718866  48.8848174  40.1676642  44.3256109  47.1414219
  38.0975020  45.4657883  46.6827041  37.1817647  45.8795359  46.5810273
  38.5823381  45.0936381  45.8786289  36.6555020  43.9537883  53.6717041
  37.1165020  44.4687883  54.6727041  36.7475020  42.6797883  53.3117041
  36.0907668  42.3446353  52.6214356  37.6685020  41.7077883  53.9307041
  38.3829170  42.1641509  54.6158636  36.6905020  40.7707883  54.7657041
  36.4133197  41.3279679  55.6605896  35.8063834  40.6134433  54.1479041
  37.2905020  39.3867883  55.1787041  37.5557787  38.8441870  54.2713382
  38.1884797  39.5657181  55.7700773  36.3105020  38.5677883  55.9867041
  36.0074512  39.1119696  56.8812017  35.4296003  38.3319002  55.3896544
  36.9975020  37.2997883  56.3837041  37.2184750  36.7271948  55.4829221
  37.9288275  37.5527348  56.8904092  36.1265020  36.4687883  57.3107041
  35.2636450  36.2339321  56.8412149  36.6149209  35.6210384  57.5614374
  35.9219814  36.9990247  58.1456411  38.5755020  40.9667883  52.9187041
  38.1835020  40.8487883  51.7687041  39.6885020  40.4457883  53.3237041
  40.0005209  40.6976708  54.2506878  40.6115020  39.6497883  52.4567041
  40.1253678  39.4288669  51.5064586  41.9405020  40.4587883  52.1687041
  41.9981120  41.3337972  52.8161141  42.7643200  39.7829001  52.3980492
  42.0355020  40.9027883  50.6957041  41.7882733  40.0328783  50.0872344
  41.1485020  42.0257883  50.3317041  41.3954554  42.8962626  50.9394765
  41.2833089  42.2690798  49.2777890  40.1110486  41.7421716  50.5087702
  43.4195020  41.3927883  50.4397041  44.1312533  40.5902960  50.6333936
  43.5062324  41.7118259  49.4010540  43.6346905  42.2351286  51.0971656
  40.8305020  38.2167883  53.0577041  40.6805020  38.0307883  54.2857041
  41.2255020  37.2637883  52.2227041  41.3264375  37.4725785  51.2396894
  41.5255020  35.8497883  52.6937041  41.9685754  35.8249188  53.6892777
  40.1645020  35.1637883  52.7487041  39.4512953  35.7050080  53.3704088
  39.7373538  35.0082046  51.7580285  40.4685020  33.8307883  53.3787041
  41.1689846  33.2638283  52.7655310  40.8839760  33.9609025  54.3779807
  39.1415020  33.0707883  53.4727041  39.2350864  32.3572358  54.2913517
  38.3679075  33.7999150  53.7135882  38.7715020  32.3497883  52.2277041
  38.8584145  33.0994613  51.4412329  39.5532651  31.6005644  52.1027671
  37.4275020  31.6887883  52.1417041  36.7029555  32.3829314  52.2570190
  37.3278465  31.2446612  51.2400834  37.3469261  30.9937893  52.8701155
  42.5255020  35.1107883  51.6667041  42.2185020  34.7467883  50.5637041
  43.7785020  34.9047883  52.0977041  44.0935094  35.3374243  52.9542646
  44.7655020  34.2737883  51.2427041  44.5345408  34.5201784  50.2063413
  46.1955020  34.7257883  51.5457041  46.1265946  35.7410080  51.9364470
  46.5751156  34.0627876  52.3231511  47.1205020  34.7047883  50.3817041
  46.9329696  33.7228716  49.9472251  46.8320169  35.4778008  49.6694331
  48.5715020  34.8317883  50.6567041  49.0425020  34.7417883  51.8137041
  49.3245020  35.1287883  49.6827041  50.3193238  35.2247263  49.8283989
  48.9265697  35.2682746  48.7649379  44.5855020  32.7277883  51.1687041
  44.6125020  32.1057883  52.2307041  44.3735020  32.1317883  49.9837041
  44.3002207  32.7160797  49.1631356  44.2355020  30.6247883  49.8117041
  43.4312279  30.2558214  50.4481834  43.8995020  30.2567883  48.3057041
  44.6939691  30.6837262  47.6936214  43.9306527  29.1696016  48.2339078
  42.5365020  30.7647883  47.8037041  41.7785815  30.3334178  48.4575978
  42.5414385  31.8485968  47.9196216  42.2175020  30.4087883  46.3487041
  43.0124379  30.7797839  45.7017590  42.1434026  29.3259833  46.2479960
  40.9255020  31.0187883  45.9167041  40.5614570  31.7717523  46.4829335
  40.2685020  30.6717883  44.8477041  40.6185020  29.6437883  44.1587041
  41.4148712  29.0936246  44.4471760  40.0953371  29.3915177  43.3324126
  39.2365020  31.2707883  44.4267041  38.8789470  32.0695077  44.9309876
  38.7752882  30.9473028  43.5884096  45.5405020  30.0627883  50.2137041
  46.5645020  30.6637883  49.9137041  45.5875020  28.9767883  51.0197041
  44.6819844  28.7275017  51.3911788  46.8025020  28.2637883  51.5587041
  47.6802993  28.5811218  50.9957916  47.0445020  28.5807883  53.0997041
  48.1288835  28.5734204  53.2099842  46.6736907  29.5977403  53.2277961
  46.3935020  27.6367883  54.2017041  46.7030785  26.6069726  54.0235385
  46.7291986  27.9507272  55.1900625  44.8625020  27.7307883  54.1277041
  44.5432941  28.7668283  54.2409573  44.5075945  27.3441599  53.1723725
  44.2735020  26.8817883  55.2777041  44.4894626  25.8343043  55.0673738
  44.7705542  27.1762091  56.2020172  42.8065020  27.0647883  55.4247041
  42.3456973  26.7916195  54.5684696  42.4703448  26.4918807  56.1855427
  42.6062062  28.0352670  55.6200290  46.7785020  26.7537883  51.2007041
  47.6415020  25.9847883  51.7757041  45.9395020  26.3177883  50.2867041
  45.2900065  27.0085009  49.9386077  45.8075020  24.8617883  49.7747041
  46.7298953  24.2988455  49.9174808  44.6565020  24.1797883  50.6377041
  43.7597286  24.7983994  50.6028181  44.4327215  23.1932144  50.2318787
  45.0885020  24.0507883  51.9797041  44.3950822  23.6396077  52.5009521
  45.5305020  24.7157883  48.2457041  44.6745020  25.4027883  47.7557041
  46.0875020  23.7287883  47.5667041  46.8001731  23.1921505  48.0402220
  45.7525020  23.3737883  46.2217041  46.0955859  22.3541128  46.0466197
  44.6677502  23.4136628  46.1225930  46.3805020  24.2947883  45.1797041
  47.0445020  25.2907883  45.5877041  46.2435020  24.0177883  43.8517041
  45.6697404  23.2736689  43.4813215  47.1425020  24.8117883  42.8687041
  48.1885801  24.8017855  43.1748410  47.0155020  24.0677883  41.4477041
  47.7493420  24.5313989  40.7884294  47.2875560  23.0260881  41.6178434
  45.6275020  24.1337883  40.7947041  44.9572941  23.5267076  41.4032888
  45.3058434  25.1746834  40.8289843  45.5925020  23.6337883  39.3387041
  46.1692478  22.7097456  39.2985978  44.5518077  23.4228918  39.0925791
  46.1265020  24.5597883  38.3517041  46.6208715  25.3132009  38.8078484
  45.9835020  24.6027883  37.0227041  45.0875020  23.9347883  36.3627041
  44.4426360  23.3354198  36.8576842  45.0393586  24.0174909  35.3572480
  46.8505020  25.2747883  36.2827041  47.6210912  25.7554907  36.7245384
  46.7376873  25.3039202  35.2794480  46.7525020  26.2787883  42.8887041
  47.4455020  27.1587883  42.3957041  45.6155020  26.6287883  43.4367041
  45.0107301  25.9328938  43.8491130  45.1725020  28.0187883  43.4387041
  45.5443973  28.5336403  42.5528596  43.6635020  28.0717883  43.4297041
  43.3281527  29.1089148  43.4326522  43.2793696  27.5687928  42.5422708
  43.1865020  27.4237883  44.5767041  42.2268913  27.4502754  44.5834612
  45.7315020  28.8177883  44.7207041  45.3665020  30.0407883  44.9297041
  46.5445020  28.2077883  45.6157041  46.7368100  27.2295114  45.4541762
  47.0585020  28.8197883  46.8297041  46.1777847  29.1870081  47.3565683
  47.8085020  27.8367883  47.7497041  48.6979929  27.4673695  47.2393751
  48.1022291  28.3483078  48.6663133  47.1564823  26.9984644  47.9950256
  47.9465020  30.0427883  46.5067041  48.4985020  30.1537883  45.4007041
  48.1525020  30.8977883  47.4797041  47.7570821  30.6542848  48.3766147
  48.9205020  32.1927883  47.3637041  49.2893157  32.4517978  48.3561706
  49.7649561  32.0210317  46.6962491  48.0775020  33.3697883  46.8167041
  48.3385020  34.5397883  47.1467041  47.0105020  33.0557883  46.0747041
  46.9897439  32.1328365  45.6650355  45.9575020  34.0197883  45.6857041
  46.4313638  34.9352905  45.3315717  45.0455020  33.4737883  44.5697041
  44.5276327  32.5901475  44.9426514  44.3148943  34.2396809  44.3094718
  45.8435020  33.1087883  43.3507041  46.2753909  34.0390400  42.9816452
  46.6406991  32.4506946  43.6963796  45.0795020  32.4317883  42.2367041
  45.7904552  32.2872973  41.4232136  44.7701818  31.4613539  42.6248762
  43.8535020  33.1867883  41.7147041  43.1641498  33.3967108  42.5325223
  44.1585823  34.1233336  41.2478979  43.1615020  32.3057883  40.6807041
  42.8783445  31.4380885  41.1131608  42.3477742  32.7841416  40.3213641
  43.7999628  32.1115038  39.9226010  45.0855020  34.6057883  46.8417041
  44.6525020  33.7937883  47.6827041  44.6745020  35.8697883  46.7627041
  45.0897770  36.4148045  46.0206777  43.7705020  36.5517883  47.7107041
  43.7345878  36.0280933  48.6659805  44.3135020  37.9477883  47.9437041
  44.5267350  38.3365640  46.9479711  43.4306734  38.4447688  48.3458536
  45.4765020  38.2047883  48.8357041  45.4165020  38.1417883  50.2547041
  44.4366888  38.0547016  50.7242587  46.5755020  38.1887883  51.0497041
  46.4526462  38.0543833  52.1243872  47.8675020  38.4177883  50.5057041
  48.9715020  38.4127883  51.3207041  48.7573863  38.2446262  52.2412885
  47.9425020  38.6207883  49.1507041  48.8808465  38.8894106  48.6654702
  46.7325020  38.4697883  48.3597041  46.7747186  38.5678969  47.2749496
  42.3095020  36.5467883  47.2417041  41.9265020  37.2767883  46.2857041
  41.3975020  35.8027883  47.8787041  41.7718992  35.0738121  48.4690599
  39.8975020  35.8817883  47.7007041  39.6841121  35.9371859  46.6332328
  39.1365020  34.6737883  48.2947041  39.5657320  34.4629923  49.2742070
  38.0737735  34.8903985  48.4032774  39.3185020  33.4547883  47.3847041
  39.5425020  32.3367883  47.8607041  39.2935020  33.5227883  46.1327041
  39.3045020  37.2617883  48.2827041  39.8065020  37.5327883  49.3747041
  38.4295020  38.0447883  47.6227041  38.1439303  37.7909802  46.6877552
  37.9455020  39.3757883  48.1907041  38.4729170  39.6181853  49.1132963
  38.2315020  40.5077883  47.1357041  37.8042837  40.1929468  46.1836229
  37.6245020  41.8807883  47.5477041  38.0516157  42.1965280  48.4995357
  37.8527973  42.6236057  46.7833717  36.5434655  41.7849712  47.6490992
  39.7185020  40.7007883  46.9667041  40.1692654  39.7703200  46.6215327
  39.9024701  41.4866839  46.2341584  40.1594334  40.9849699  47.9221732
  36.5285020  39.2937883  48.5977041  35.7305020  38.7437883  47.8267041
  36.2885020  39.7957883  49.7807041  37.0592875  40.2396725  50.2591974
  35.0185020  39.6137883  50.5157041  34.2564605  39.1728948  49.8730496
  35.2785020  38.6597883  51.6967041  36.1783289  38.8780176  52.2718448
  34.3990997  38.9123674  52.2891191  35.2465020  37.1777883  51.3477041
  36.4125020  36.4777883  51.1567041  37.3365559  37.0546606  51.1946786
  36.4585020  35.0727883  50.9187041  37.4133178  34.5470379  50.9225947
  35.2515020  34.3457883  51.0187041  35.0705020  33.0797883  50.6837041
  35.8671070  32.6633994  50.3465982  34.0605020  35.0367883  51.1897041
  33.1076941  34.5097030  51.1403216  34.0865020  36.4527883  51.4327041
  33.1674671  36.9781443  51.6924656  34.4575020  40.9677883  50.8537041
  35.1805020  41.8967883  51.1867041  33.0915020  41.0237883  50.8827041
  32.6041040  40.1889098  50.5902653  32.3175020  42.1937883  51.1807041
  32.9124521  42.8917917  51.7697073  31.8805020  42.8977883  49.8717041
  31.7672474  42.0543080  49.1906655  30.8965452  43.2842073  50.1374284
  32.6875020  43.9917883  49.1927041  33.6791755  43.6048010  48.9583428
  32.0155020  44.4397883  47.9307041  31.0238845  44.8273593  48.1643329
  32.6097342  45.2232601  47.4604270  31.9233200  43.5951220  47.2479584
  32.8585020  45.2457883  50.1137041  33.3760408  44.9574070  51.0286299
  33.4411005  46.0043903  49.5910157  31.8776141  45.6500645  50.3637417
  31.1885020  41.7637883  52.0737041  30.6705020  40.6947883  51.8097041
  30.8305020  42.5927883  52.9857041  31.3539549  43.4565224  52.9779831
  29.8015020  42.3957883  54.0557041  29.1990295  41.5025013  53.8908876
  30.4595020  42.3177883  55.4257041  31.3172872  42.9899139  55.4022083
  29.5125020  42.7097883  56.6417041  28.6546662  42.0377602  56.6661326
  30.0666442  42.6248837  57.5764867  29.1662010  43.7357773  56.5171198
  31.0595020  40.9017883  55.6887041  31.3007550  40.8514742  56.7504792
  30.2772872  40.1780559  55.4596823  32.3265020  40.5747883  54.8547041
  33.1093685  41.2978719  55.0835488  32.6755131  39.5720096  55.1011295
  32.0859009  40.6244560  53.7927512  28.7805020  43.5947883  53.9387041
  29.2275020  44.6987883  53.6427041  27.4955020  43.3607883  54.2227041
  27.2563477  42.3828234  54.1421480  26.4245020  44.3177883  54.3607041
  26.6754067  45.2985472  53.9566524  25.2835020  43.7177883  53.5217041
  24.7005031  44.6233085  53.3536428  25.6754375  43.3569095  52.5707819
  24.3555020  42.6367883  54.1147041  24.4345020  42.2837883  55.2827041
  23.5665020  41.9927883  53.2807041  22.9440844  41.2778454  53.6293484
  23.5872094  42.2166032  52.2960322  26.0225020  44.9097883  55.7477041
  26.4775020  44.4157883  56.7647041  25.2315020  46.0277883  55.8127041
  24.8485020  46.9207883  54.7007041  24.1867820  46.3543653  54.0454241
  25.7613280  47.1755205  54.1622256  24.1645020  48.1517883  55.3067041
  23.3515646  48.4923588  54.6654214  24.8828058  48.9603520  55.4422244
  23.6415020  47.6547883  56.6547041  22.6067671  47.3121187  56.6553283
  23.7517056  48.4773873  57.3613056  24.5755020  46.4977883  57.0467041
  25.3715383  46.9207294  57.6595216  23.7875020  45.4387883  57.8777041
  23.5315020  45.6567883  59.0717041  23.4075020  44.3587883  57.2527041
  23.6113787  44.2168241  56.2737354  22.5435020  43.4007883  57.9227041
  22.1052071  43.8213553  58.8277567  21.3795020  43.0487883  56.9147041
  20.9601556  44.0068613  56.6075496  21.8657168  42.5753684  56.0617277
  20.2715020  42.1537883  57.4237041  19.6678020  41.9019796  56.5517869
  20.7179564  41.2463082  57.8302263  19.3855020  42.7527883  58.4587041
  19.4405020  43.9117883  58.7467041  18.5885020  41.9087883  59.0337041
  17.9511905  42.2277587  59.7493810  18.6081844  40.9357688  58.7636170
  23.2275020  42.1437883  58.5007041  22.7385020  41.3577883  59.1917041
  24.4695020  41.9757883  58.0487041  24.6989049  42.6422233  57.3252831
  25.4875020  41.0037883  58.4437041  26.4195682  41.5633790  58.5225071
  25.1931977  40.6482247  59.4311549  25.7035020  39.8127883  57.5357041
  26.4105020  38.8677883  57.9757041  25.2305020  39.7697883  56.2857041
  24.4866003  40.4101911  56.0478096  25.5975020  38.7187883  55.3007041
  25.8444533  37.7821489  55.8005251  24.4135020  38.4887883  54.4097041
  23.5679728  38.2532363  55.0559974  24.2203895  39.4252970  53.8864844
  24.6025020  37.3717883  53.3957041  25.3653671  37.7043227  52.6917451
  24.9673674  36.5020033  53.9420093  23.3485020  37.0017883  52.6407041
  22.6393835  36.5012801  53.3000535  22.8828746  37.8905485  52.2147982
  23.7625020  36.0347883  51.4957041  24.1145331  36.6468168  50.6652852
  24.5835455  35.4225812  51.8687848  22.6905020  35.1777883  51.0417041
  21.9297775  35.7448705  50.6955600  23.0283466  34.5794873  50.3014359
  22.3644457  34.6102783  51.8109368  26.9185020  39.0367883  54.6047041
  27.3235020  40.1907883  54.5527041  27.6095020  37.9517883  54.1847041
  27.1872418  37.0538662  54.3732025  28.9135020  37.9807883  53.4897041
  29.3649405  38.9727108  53.5095069  29.8295020  37.0187883  54.2107041
  29.3952750  36.0192014  54.1913903  30.8009920  37.0019446  53.7167166
  29.9537825  37.3404521  55.2447186  28.7645020  37.5467883  51.9587041
  27.8275020  36.7657883  51.5997041  29.6125020  38.1417883  51.1207041
  30.2936806  38.7030811  51.6116679  29.6355020  38.1447883  49.6837041
  29.1329847  37.2514529  49.3128571  28.9075020  39.4087883  49.1007041
  29.4593361  40.3437752  49.1975434  28.8451884  39.1315919  48.0483833
  27.5015020  39.6897883  49.5557041  26.4175020  39.0337883  48.9997041
  26.5685107  38.2723858  48.2344836  25.1395020  39.3477883  49.4187041
  24.2811400  38.9867152  48.8521870  24.9415020  40.1357883  50.5797041
  23.9363275  40.2684551  50.9798587  26.0105020  40.7307883  51.1997041
  25.8758373  41.3846126  52.0613766  27.2865020  40.4847883  50.7067041
  28.1559758  40.9087067  51.2091068  31.1165020  38.0547883  49.2217041
  32.0665020  38.6347883  49.8107041  31.3115020  37.2927883  48.1227041
  30.5364061  36.7759982  47.7325072  32.6795020  37.1027883  47.5107041
  33.3195409  37.9383861  47.7939455  33.3385020  35.7917883  47.9907041
  33.1839317  35.6805130  49.0639353  32.8870001  34.9475376  47.4696601
  35.0805020  35.6537883  47.7297041  35.2054959  34.4420494  48.2635241
  32.7125020  37.1447883  45.9527041  33.7865020  37.2807883  45.3697041
  31.5565020  36.9837883  45.2847041  30.7624259  36.7322737  45.8559160
  31.4035020  36.9437883  43.8167041  32.2883018  37.3451057  43.3225657
  31.2275020  35.4957883  43.3957041  32.2224861  35.0612194  43.2994981
  30.6854477  34.9881038  44.1935347  30.5235020  35.3407883  42.1727041
  30.4465015  34.4069283  41.9639548  30.3125020  37.9777883  43.3977041
  29.2695020  38.0267883  44.0497041  30.6325020  38.7087883  42.2837041
  31.6171785  38.7154462  42.0590553  29.7375020  39.6407883  41.5527041
  29.4090540  40.4395061  42.2177387  30.5145020  40.2947883  40.3107041
  31.3581460  40.8566172  40.7115935  30.8842148  39.4788947  39.6896324
  29.5935020  41.2717883  39.4207041  28.8515965  40.6016131  38.9864895
  29.1135891  41.9155921  40.1577946  30.1905020  42.1047883  38.3527041
  29.4387442  42.3646479  37.6074309  30.6147928  43.0165003  38.7732488
  31.3335020  41.2587883  37.6727041  31.9077034  41.9594098  37.0664676
  31.9572983  40.8860982  38.4851569  30.8925020  40.1267883  36.8317041
  30.3148167  40.4719647  36.0785557  31.7004783  39.6574108  36.4483519
  30.3607778  39.4772448  37.3933641  28.3075020  39.0877883  41.1957041
  27.3045020  39.7947883  41.3757041  28.2775020  37.9207883  40.4797041
  29.1862574  37.6103553  40.1668235  27.0945020  37.1437883  40.0697041
  26.2621441  37.6738285  39.6067387  27.4715020  35.9557883  39.1827041
  26.6386662  35.2670428  39.0408816  27.8315020  36.5907883  37.8577041
  28.6646254  37.2793671  37.9986493  28.1183682  35.8145940  37.1482460
  26.9712734  37.1365979  37.4701475  28.4415020  34.8327883  39.6437041
  28.0370611  34.3438012  40.5299441  28.5553748  34.0998245  38.8450198
  29.4134642  35.2658696  39.8799896  26.3235020  36.6827883  41.2757041
  25.0935020  36.7317883  41.3087041  26.9765020  36.3907883  42.3497041
  27.9450553  36.1446761  42.2033052  26.3875020  36.1527883  43.6827041
  25.4485893  35.6143259  43.5538611  27.3215020  35.3147883  44.6317041
  28.3361528  35.6875101  44.4914854  26.9997144  35.5142843  45.6538363
  27.2915020  33.7747883  44.3677041  27.2480189  33.6557716  43.2850938
  28.2264630  33.3572479  44.7413445  26.1225020  33.0457883  45.0037041
  26.3105020  32.1127883  45.8567041  24.9765020  33.4037883  44.6237041
  25.8315020  37.4607883  44.2627041  24.8065020  37.5027883  44.9717041
  26.4255020  38.5987883  43.9867041  27.3416855  38.4691531  43.5818562
  26.0425020  39.9457883  44.4237041  25.6276770  39.8954581  45.4304247
  27.2375020  40.8817883  44.4377041  28.0473638  40.3750882  44.9625642
  27.5361493  41.0717041  43.4067620  26.9265020  42.2347883  45.1457041
  25.9947214  42.6569923  44.7693671  26.7905020  41.9527883  46.6227041
  27.7221142  41.5309655  46.9998819  26.5718917  42.8804478  47.1516258
  25.9791761  41.2430730  46.7844293  27.9945020  43.2857883  44.9487041
  28.1064704  43.4958339  43.8850109  27.7072980  44.1986518  45.4705233
  28.9411095  42.9219723  45.3482928  24.8035020  40.4537883  43.7537041
  23.8505020  40.8507883  44.4637041  24.7225020  40.2927883  42.4747041
  25.5596010  39.9304266  42.0410469  23.6115020  40.6577883  41.6227041
  23.2750676  41.6847945  41.7647228  23.8585020  40.4047883  40.1397041
  24.3643280  39.4416606  40.0716939  22.5635020  40.3867883  39.2257041
  22.0573572  41.3498102  39.2928375  22.8509247  40.1993184  38.1911298
  21.8904800  39.5988427  39.5637607  24.9595020  41.4127883  39.6247041
  24.5230587  42.3651661  39.3237149  25.7279083  41.5876713  40.3777428
  25.6055020  40.7097883  38.3677041  24.8377390  40.5349883  37.6139901
  26.3829031  41.3507408  37.9518598  26.0425867  39.7574919  38.6680179
  22.2815020  39.9577883  42.0357041  21.2295020  40.6277883  42.0367041
  22.3755020  38.6197883  42.3407041  23.2930693  38.2058826  42.2579298
  21.2775020  37.7717883  42.7007041  20.4261125  37.8530145  42.0249547
  21.8795020  36.3597883  42.5667041  22.3345018  36.3018689  41.5779070
  22.6543213  36.2721059  43.3283253  20.8825020  35.2327883  42.7297041
  21.4565643  34.3148578  42.8560247  20.3177501  35.4356460  43.6396526
  19.7345020  35.0297883  41.3517041  20.8155020  34.0507883  40.1917041
  21.1091413  33.1161847  40.6696070  20.2640150  33.8329793  39.2770883
  21.7065534  34.6297480  39.9489404  20.7025020  38.0757883  44.1207041
  19.5055020  37.9967883  44.3707041  21.6045020  38.4997883  44.9467041
  22.5845939  38.2854409  44.8301948  21.1595020  39.1277883  46.2427041
  20.4375951  38.4652670  46.7202136  22.3555020  39.3797883  47.2467041
  22.6512544  38.4643627  47.7591744  23.1428231  39.6787779  46.5547283
  22.1375020  40.4637883  48.2507041  21.7725020  40.1707883  49.5567041
  21.6541428  39.1345086  49.8732719  21.5585020  41.1987883  50.4587041
  21.0654219  40.9871856  51.4074919  21.8355020  42.5077883  50.0987041
  21.7325020  43.4297883  51.0867041  21.4747382  43.0492315  51.9295173
  22.3405020  42.8437883  48.8307041  22.6320670  43.8610435  48.5693957
  22.4655020  41.7987883  47.8717041  22.8084104  42.0239723  46.8618497
  20.2915020  40.3277883  46.0067041  19.1565020  40.3607883  46.5047041
  20.7525020  41.3237883  45.2257041  21.7317969  41.3445422  44.9794319
  19.9375020  42.4507883  44.8707041  19.4502624  42.8153703  45.7750142
  20.7375020  43.6297883  44.2237041  21.3964617  43.1298543  43.5138187
  20.1333288  44.3697744  43.6988276  21.6115020  44.3807883  45.1577041
  22.9995020  44.1647883  45.1777041  23.3824773  43.4693257  44.4308697
  23.8785020  44.7787883  46.0787041  24.9547468  44.6066131  46.0663159
  23.3215020  45.6427883  47.0207041  23.9510747  46.1533741  47.7494292
  21.9135020  45.8547883  47.0237041  21.4842263  46.5522244  47.7430132
  21.0765020  45.1767883  46.1127041  19.9945793  45.2929629  46.1763174
  18.6565020  42.1687883  43.9847041  17.7775020  42.9657883  43.9117041
  18.5735020  41.0307883  43.3027041  19.4187091  40.4785884  43.3309816
  17.4625020  40.5547883  42.4827041  17.1451804  41.3367939  41.7928684
  17.9085020  39.3037883  41.6507041  18.6971884  39.6446049  40.9799456
  18.3217692  38.5904359  42.3637530  16.7945020  38.6227883  40.8297041
  17.2791100  37.7701648  40.3540056  16.0041315  38.2682613  41.4913115
  16.1985020  39.5197883  39.7687041  14.9825020  39.3887883  39.6087041
  16.9985020  40.2737883  39.0947041  16.2545020  40.2647883  43.3807041
  15.1105020  40.7257883  43.0977041  16.5295020  39.6107883  44.5087041
  17.5001896  39.4717648  44.7506489  15.5005020  39.0227883  45.3837041
  14.5237708  38.9511270  44.9052065  16.0355020  37.5597883  45.6627041
  17.0198466  37.6167554  46.1273757  15.3473384  37.0442808  46.3326169
  16.1425020  36.7527883  44.2837041  15.1285766  36.6219705  43.9056263
  16.7114561  37.3715525  43.5897848  16.8295020  35.3597883  44.4207041
  17.9004042  35.4684108  44.5923679  16.3878792  34.7856894  45.2352465
  16.5995020  34.6357883  43.1107041  15.5629237  34.2987541  43.1069490
  16.7478400  35.3618458  42.3113697  17.4795020  33.4977883  42.9007041
  17.3418956  32.8246911  43.6410449  17.2678881  33.0681765  42.0114610
  18.4400494  33.8099397  42.9037224  15.2265020  39.8017883  46.6747041
  14.0235020  39.7397883  47.0537041  16.2525020  40.3867883  47.3577041
  17.1652999  40.3376260  46.9281900  16.1405020  41.0007883  48.7267041
  15.1368285  41.3864964  48.9055002  16.4865020  40.0057883  49.8357041
  16.4900570  40.5586163  50.7751017  15.4775020  38.7837883  49.9447041
  15.4737460  38.2301705  49.0057717  15.7911419  38.1240061  50.7536652
  14.4742604  39.1574667  50.1495760  17.9485020  39.4407883  49.6387041
  18.6632656  40.2632419  49.6667234  18.1763742  38.7347066  50.4372169
  18.0160844  38.9340128  48.6760453  16.9635020  42.2597883  48.9297041
  16.7595020  42.9297883  49.9507041  17.9925020  42.4627883  48.1167041
  18.1278522  41.8067163  47.3608277  18.9125020  43.5447883  48.2457041
  19.2897478  43.5709924  49.2680046  19.7426372  43.3899634  47.5564987
  18.2535020  44.8647883  47.9317041  17.4345020  44.9087883  47.0517041
  18.6245020  45.9447883  48.6107041  19.3022639  45.9173885  49.3590272
  17.9865020  47.2347883  48.2927041  16.9060418  47.2300491  48.4365186
  18.6015020  48.1737883  49.2967041  18.1849012  47.6960547  50.1834475
  19.6858657  48.0631515  49.3005657  18.2525020  49.6127883  49.3017041
  18.7485020  50.2767883  50.2437041  17.3915020  50.0747883  48.5427041
  18.2225020  47.6597883  46.8617041  19.3335020  47.6467883  46.2967041
  17.1365020  47.9687883  46.1617041  16.2599685  47.7056213  46.5889412
  17.1145020  48.4787883  44.7827041  17.7000631  47.8512659  44.1108165
  15.6315020  48.4977883  44.2837041  15.0390226  49.1204256  44.9540706
  15.5515020  49.0747883  42.8277041  16.1434051  48.4523642  42.1566315
  14.5134091  49.0812378  42.4954080  15.9420099  50.0923847  42.8176223
  15.2895020  47.1467883  44.3777041  14.3808616  47.0261279  44.0923727
  17.8275020  49.7557883  44.5547041  18.2465020  50.0287883  43.4077041
  17.9265020  50.6337883  45.5647041  17.5120372  50.4410280  46.4653493
  18.5225020  51.9737883  45.3367041  18.1684651  52.4433216  44.4189375
  18.0395020  52.8127883  46.5377041  18.2325622  53.8620842  46.3145338
  16.9663283  52.6566790  46.6473770  18.6915020  52.4597883  47.7397041
  18.3597619  53.0060641  48.4560359  20.0745020  51.9627883  45.1167041
  20.6395020  52.9787883  44.7847041  20.7395020  50.7417883  45.1157041
  20.2654925  49.9135393  45.4464879  22.2055020  50.6387883  44.7747041
  22.5921746  51.6157029  44.4844952  23.0035020  50.1357883  46.0137041
  22.9141232  49.0586748  45.8725045  24.0117884  50.4540075  45.7487607
  22.7245020  50.4867883  47.4967041  21.7895293  50.0082984  47.7882078
  23.8365020  50.0217883  48.4137041  24.7717692  50.5002419  48.1230908
  23.5959889  50.2902055  49.4423958  23.9432130  48.9397718  48.3365452
  22.5755020  52.0057883  47.6447041  21.7460241  52.3518227  47.0279983
  22.3792370  52.2521776  48.6881952  23.4951824  52.4946298  47.3232687
  22.4595020  49.7987883  43.5247041  21.9765020  48.7047883  43.4407041
  23.3875020  50.1947883  42.6107041  23.8155271  51.1091900  42.6383320
  23.7515020  49.2947883  41.5257041  22.9009958  48.6978759  41.1964108
  24.2095020  50.1657883  40.3697041  23.5455485  51.0105091  40.1860963
  25.1403960  50.5247259  40.8086803  24.5155020  49.4427883  39.0217041
  24.9755020  50.1907883  38.1087041  24.4705020  48.1997883  39.0007041
  24.8545020  48.3117883  41.9787041  26.0145020  48.6757883  42.2817041
  24.6355020  46.9567883  42.0777041  23.3995020  46.2497883  41.6797041
  22.9334323  46.8059283  40.8663238  22.7261984  46.2276891  42.5366014
  23.8325020  44.8967883  41.2677041  24.0361936  44.8936105  40.1969107
  23.0401822  44.1815191  41.4884320  25.0655020  44.5897883  42.0597041
  25.7245131  44.1142916  41.3332702  24.9508681  43.9386686  42.9263078
  25.6455020  45.9197883  42.4867041  25.8835549  46.0251296  43.5451617
  26.9135020  46.1317883  41.6557041  28.0255020  45.8217883  42.1117041
  26.9035020  46.6187883  40.4557041  25.9576689  46.7035955  40.1117464
  28.0345020  46.9207883  39.5127041  28.7146938  46.0695726  39.4832048
  27.5265020  47.1927883  38.0887041  26.9304001  48.0996051  37.9865036
  28.4448313  47.2951910  37.5105303  26.7215020  46.0097883  37.5267041
  27.3215020  44.9927883  37.2967041  25.3815020  46.0097883  37.4117041
  24.9101293  45.2003252  37.0339780  24.8526623  46.8192514  37.7035926
  29.0165020  48.0357883  39.9347041  30.1585020  48.1747883  39.4287041
  28.5915020  48.8307883  40.9557041  27.6382237  48.7045584  41.2646151
  29.4055020  49.9187883  41.5887041  30.0169926  50.3507880  40.7965207
  28.6355020  51.0417883  42.2777041  27.9513718  50.4830422  42.9163495
  29.3195138  51.6210158  42.8979648  27.8425020  51.9807883  41.3867041
  26.8275020  52.4947883  41.7817041  28.2375020  52.1057883  40.2307041
  30.4035020  49.3827883  42.6127041  31.4945020  49.9687883  42.7557041
  30.1245020  48.2147883  43.1917041  29.2001430  47.8137251  43.1223628
  31.1295020  47.5257883  44.0427041  31.5461343  48.2482381  44.7445467
  30.5365020  46.3637883  44.8337041  29.9444998  45.7647987  44.1417185
  31.2624817  45.7251685  45.3369121  29.6035020  46.8507883  45.8787041
  30.0205020  47.2877883  47.1867041  31.0842376  47.3442903  47.4177322
  29.0965020  47.6297883  48.1337041  29.4312136  48.0374233  49.0875923
  27.7265020  47.4597883  47.8857041  27.0220243  47.7029902  48.6811059
  27.2525020  46.9867883  46.6437041  26.2008632  46.7673378  46.4593198
  28.1885020  46.8027883  45.6327041  27.8576333  46.6143972  44.6113645
  32.3295020  47.0617883  43.1727041  32.0695020  46.7707883  41.9937041
  33.5635020  46.9367883  43.6477041  33.7650703  47.2923145  44.5713224
  34.6645020  46.4217883  42.8527041  34.2365570  45.8706077  42.0153498
  35.6115020  47.4847883  42.3037041  36.0572745  48.1165669  43.0719761
  36.3864891  46.8721594  41.8430732  34.9585020  48.3617883  41.2407041
  35.1445020  49.6247883  41.3927041  34.4545020  47.7637883  40.2777041
  35.4295020  45.3677883  43.6587041  35.9395020  45.7157883  44.7117041
  35.4815020  44.1117883  43.1207041  35.0906308  43.9820994  42.1984786
  35.9935020  42.9807883  43.7967041  35.9028088  43.1109229  44.8751006
  35.1705020  41.6947883  43.3707041  34.8738475  41.8431715  42.3323989
  35.6947851  40.7439124  43.4659003  33.8615020  41.5637883  44.1917041
  33.9165020  41.0377883  45.4967041  34.8665763  40.6668467  45.8812312
  32.7915020  40.9887883  46.2827041  32.9195051  40.7354720  47.3351046
  31.5065020  41.2517883  45.7737041  30.5795690  41.1146804  46.3305673
  31.4655020  41.7527883  44.3647041  30.5075741  42.0416892  43.9322570
  32.6445020  41.8537883  43.5977041  32.5901533  42.1566933  42.5520490
  37.5335020  42.7827883  43.5057041  38.0405020  41.6967883  43.4227041
  38.1875020  43.8977883  43.1267041  37.6439675  44.7277415  42.9373706
  39.6835020  43.9647883  42.9417041  40.0491649  43.3062837  42.1538199
  39.9725020  45.4747883  42.5187041  39.4313084  45.6124114  41.5826114
  39.6005020  46.5597883  43.4717041  40.1416899  46.4230910  44.4079355
  39.8593358  47.5270074  43.0409010  38.5281859  46.5234541  43.6638466
  41.3875020  45.4877883  42.3147041  41.6649136  46.3686396  42.0525132
  40.4515020  43.5907883  44.1737041  40.1545020  43.9937883  45.2867041
  41.5325020  42.8287883  44.0077041  41.5263250  42.1244383  43.2838587
  42.6475020  42.8227883  44.9847041  42.2989911  43.0735639  45.9865779
  43.3915020  41.4837883  45.0457041  42.6314561  40.7603148  45.3406885
  44.0915020  40.9977883  43.8337041  44.8520687  41.7205687  43.5383608
  44.5650214  40.0393990  44.0467063  43.3731314  40.8753435  43.0231164
  44.4475020  41.4067883  46.1487041  43.9721084  41.5539369  47.1184723
  44.9279239  40.4286653  46.1248303  45.1963775  42.1827940  45.9902700
  43.5695020  43.9367883  44.8927041  44.0975020  44.3907883  45.8787041
  43.8605020  44.3677883  43.6597041  43.2459886  44.1326696  42.8934197
  45.1175020  45.0767883  43.3557041  45.8155959  44.7415422  44.1227596
  45.5825020  44.5167883  41.9817041  45.3894182  43.4440792  41.9710149
  44.8575020  45.1747883  40.8137041  45.0505037  46.2475206  40.8234612
  45.2169879  44.7499790  39.8764710  43.7857651  44.9981288  40.9046554
  46.8875020  44.8447883  41.6057041  47.0809617  44.4563983  40.7493591
  45.0205020  46.5557883  43.3887041  46.0415020  47.2697883  43.2717041
  43.7415020  47.1007883  43.3767041  42.9892189  46.4287131  43.4265486
  43.3955020  48.5347883  43.2997041  42.6043737  48.7760006  44.0096562
  44.2701566  49.1509881  43.5079744  42.9055020  48.8317883  41.8947041
  43.2225020  48.0437883  40.9987041  42.1865020  49.9427883  41.7687041
  41.9481375  50.5159942  42.5653952  41.5225020  50.2277883  40.4737041
  41.1211663  49.3357170  39.9928323  40.3325020  51.1597883  40.8697041
  40.8033828  52.0509266  41.2847258  39.8497567  51.4109428  39.9252580
  39.2855020  50.6317883  41.8527041  38.8430279  49.7594500  41.3717224
  39.8422488  50.3162258  42.7350620  38.1675020  51.6097883  42.2727041
  38.6203426  52.3441911  42.9388023  37.8217741  52.1066481  41.3662264
  37.0365020  51.0227883  42.9357041  36.3649814  50.6316177  42.2906110
  36.8455020  50.8417883  44.2337041  37.6325020  51.3307883  45.1597041
  38.4374720  51.8805381  44.8953213  37.4306561  51.1557855  46.1337329
  35.7455020  50.2537883  44.5667041  35.0946314  49.9639487  43.8508406
  35.5409930  50.0863907  45.5415133  42.4105020  50.6987883  39.3057041
  42.6865020  49.8377883  38.4437041  42.8015020  51.9037883  39.2647041
  15.2932565  12.7144928  53.1561072  15.1585020  13.5837883  52.7717041
  13.8945020  13.9127883  52.2607041  13.1925968  13.8596754  53.0929353
  13.5821192  13.2215663  51.4779334  13.9035020  15.3507883  51.6947041
  12.8796415  15.6376972  51.4549262  14.2825020  16.2297883  52.7537041
  15.2095020  17.1767883  52.1847041  14.6907380  17.9860715  51.6708506
  15.8435020  17.8647883  53.3367041  16.9345020  17.3727883  53.9357041
  17.4125776  16.4723238  53.5793214  17.5115020  18.0587883  54.9707041
  18.7165020  17.4767883  55.7847041  19.5568514  17.2989453  55.1136709
  19.0121774  18.1882033  56.5557845  18.4202313  16.5376245  56.2519250
  17.0085020  19.3987883  55.3217041  17.3945020  20.1077883  56.2227041
  15.8775020  19.8057883  54.6477041  15.4126156  20.7539761  54.9177381
  15.2375020  19.0527883  53.6977041  14.1255020  19.4217883  53.2647041
  14.8655020  15.6137883  50.5147041  15.2353173  14.7018884  50.0459029
  16.0305020  16.3507883  51.1897041  16.9226043  15.7251695  51.1604690
  16.2247937  17.2846190  50.6621529  14.1125020  16.2797883  49.4687041
  14.7595020  17.1357883  48.3067041  13.6745020  17.3557883  47.3127041
  15.9865020  16.4607883  47.8547041  15.1525020  18.5897883  48.8697041
  14.1875020  19.4957883  49.3407041  13.7039091  18.9121672  50.1240460
  13.5330088  19.7895303  48.5200612  14.7135020  20.7717883  49.9297041
  13.9303392  21.2463181  50.5209544  15.7295020  20.4517883  50.8747041
  16.8545020  21.2297883  50.6617041  17.0473321  22.0605526  51.3404872
  17.9965020  20.2707883  50.9357041  18.1795020  19.1507883  50.1837041
  17.5599628  18.9334072  49.3261981  19.1835020  18.2677883  50.5247041
  19.1610877  17.2775652  50.0696700  19.9505020  18.5727883  51.6707041
  20.6895020  17.6517883  52.2497041  21.2195119  17.9201473  53.0665110
  20.7159204  16.7127625  51.8787133  19.8055020  19.6207883  52.4567041
  18.7825020  20.4787883  52.1187041  18.5245020  21.3947883  52.8657041
  15.2375020  21.7387883  48.8717041  15.0713913  21.4289850  47.8399445
  16.7555020  21.6827883  49.1907041  17.3092310  21.4406222  48.2835994
  17.0838426  22.6510198  49.5686199  14.6885020  22.9947883  49.0227041
  15.1735020  24.3117883  48.2357041  14.0395020  25.2597883  48.1887041
  15.8215020  23.9717883  46.9647041  16.2885020  24.9147883  49.1877041
  15.9705020  25.1747883  50.5687041  15.6053755  24.2201210  50.9473771
  15.2515993  25.9918881  50.6289327  17.2265020  25.5557883  51.3127041
  16.8683197  25.8153947  52.3089015  18.0615020  24.4377883  51.5177041
  19.4075020  24.9497883  51.6347041  19.7530524  25.2662165  52.6188623
  20.3725020  23.8907883  51.2677041  20.2545020  23.1667883  50.0637041
  19.5698102  23.4985874  49.2972142  20.9875020  22.0567883  49.8417041
  20.8355020  21.3227883  48.5007041  21.1027799  21.9952063  47.6855257
  21.4934695  20.4539224  48.4848667  19.8022567  20.9977174  48.3789154
  21.8495020  21.5397883  50.8537041  22.5605020  20.5427883  50.7897041
  21.9045020  22.3027883  51.9847041  22.2972854  21.7746884  52.8535726
  21.2955020  23.5327883  52.2207041  21.4115020  24.0437883  53.3257041
  18.1415020  26.6987883  50.6887041  17.8693940  26.9290393  49.6586359
  19.5175020  26.1757883  50.7277041  20.0224566  26.4099724  49.7905394
  20.0578951  26.6348285  51.5555674  18.1555020  27.8267883  51.4727041
  18.4565020  29.3467883  50.8977041  17.7635020  30.3667883  51.8247041
  18.1155020  29.4437883  49.4707041  20.0365020  29.4497883  51.0937041
  20.5125020  29.3407883  52.4907041  19.9906969  28.5007749  52.9491766
  20.2783502  30.2600089  53.0276464  22.0545020  29.1107883  52.6027041
  22.4156673  29.1755927  53.6290858  22.3785020  27.7767883  52.1917041
  23.3505020  27.6877883  51.2157041  24.2457405  27.4046415  51.7693061
  23.1475020  26.5587883  50.2757041  22.4095020  26.3447883  49.1477041
  21.6648717  27.0797606  48.8798545  22.6765020  25.2587883  48.4947041
  23.5335020  24.5717883  49.3387041  24.2045020  23.2757883  49.3107041
  24.2105020  22.3757883  48.5277041  25.1425020  23.0787883  50.3707041
  25.4741504  22.1655585  50.6073878  25.4225020  24.0907883  51.2367041
  26.3295020  23.7927883  52.1387041  26.8096237  22.9111665  52.2497293
  26.5577717  24.5165315  52.8051797  24.7875020  25.1907883  51.4047041
  23.8825020  25.3937883  50.4227041  22.8085020  30.0557883  51.6697041
  22.1915127  30.8474888  51.2446945  23.2065020  29.0267883  50.5307041
  22.7959368  29.3616759  49.5781362  24.2923995  28.9676282  50.4570365
  23.9915020  30.6377883  52.2547041  24.2655020  32.1807883  52.2797041
  23.3395020  33.0157883  53.1167041  24.6485020  32.5957883  50.9337041
  25.7005020  32.0557883  53.1077041  25.7735020  31.4817883  54.4217041
  24.7861483  31.0418143  54.5619025  26.0206963  32.2588673  55.1449909
  26.8365020  30.3827883  54.5397041  26.8354449  29.9735262  55.5499530
  26.4195020  29.2967883  53.7137041  27.5095020  28.9497883  52.9167041
  27.7048573  28.1149520  53.5897450  27.1325020  28.3137883  51.6877041
  26.5015020  28.9687883  50.6387041  26.1787753  29.9917830  50.7641283
  26.3595020  28.2607883  49.5857041  27.0505020  27.0497883  49.8337041
  27.2685020  25.8467883  49.0467041  26.5725020  25.4367883  48.0827041
  28.3255020  25.0657883  49.5537041  28.8538549  24.4567938  48.9621237
  28.7765020  25.2597883  50.7957041  29.7085020  24.4747883  51.2397041
  30.1393968  23.7044698  50.7487464  30.0241905  24.6389065  52.1849591
  28.4955020  26.2877883  51.5837041  27.6035020  27.1627883  51.0957041
  28.3115020  30.8707883  54.1357041  28.4498934  31.9483754  54.0476556
  28.3625020  30.2557883  52.7917041  28.4647818  31.0365042  52.0379663
  29.2160748  29.5804837  52.7327348  29.2655020  30.4117883  55.0067041
  30.6715020  31.0247883  55.2017041  31.0915020  30.6667883  56.5827041
  30.6695020  32.4787883  54.9117041  31.6595020  30.2337883  54.1617041
  31.8665020  28.8387883  54.2617041  30.8256536  28.5164864  54.2909667
  32.5072581  28.6264607  55.1175366  32.5445020  28.2557883  52.9977041
  32.9410163  27.3149662  53.3794496  31.6705020  27.8697883  51.9287041
  32.3605020  28.2227883  50.7387041  33.0710971  27.5018127  50.3345408
  31.3865020  28.3637883  49.6607041  30.5515020  29.4067883  49.2367041
  30.6472582  30.3838990  49.6866896  29.7425020  29.0857883  48.2487041
  30.0775020  27.7917883  47.9007041  29.7455020  26.8777883  46.8987041
  28.9665020  27.1347883  45.9277041  28.7694610  26.4249012  45.2368087
  28.5445650  28.0488807  45.8470628  30.1355020  25.5937883  46.9777041
  30.9865020  25.2257883  47.9247041  31.3850912  24.2279060  48.0331320
  31.4785020  26.0537883  48.8947041  31.0265020  27.3217883  48.8477041
  33.6815020  29.1457883  52.4577041  33.9046399  30.0715011  52.9881418
  33.0615020  29.4757883  51.0887041  32.8016466  30.5337398  51.0524695
  33.7799696  29.2514491  50.3003030  34.8435020  28.4227883  52.2417041
  35.9925020  28.3397883  53.3167041  35.4035020  27.6767883  54.5347041
  36.6995020  29.6407883  53.4257041  36.9585020  27.3097883  52.5217041
  36.8405020  25.9217883  52.6897041  35.7779693  25.7550654  52.8667010
  37.4695194  25.6010119  53.5200897  37.2935020  25.1037883  51.3787041
  37.3767234  24.0515696  51.6507508  36.2355020  25.1517883  50.5187041
  36.6505020  25.5147883  49.1957041  36.7371920  24.6497268  48.5382448
  35.6375020  26.3907883  48.4767041  35.2585020  27.6697883  48.6827041
  35.7955598  28.2484347  49.4196836  34.3015020  28.1067883  47.9157041
  34.0815020  27.0407883  47.0447041  33.2065020  26.8857883  45.9467041
  32.3965020  27.8677883  45.4877041  31.7921211  27.6955781  44.6970280
  32.3963065  28.7729514  45.9357872  33.1675020  25.6817883  45.3677041
  33.9495020  24.6787883  45.7767041  33.9710545  23.6974045  45.3263482
  34.8235020  24.7537883  46.8127041  34.8575020  25.9467883  47.4087041
  38.5525020  25.5897883  50.6397041  39.2671322  26.2561057  51.1228433
  38.0005020  26.2527883  49.4157041  38.2075474  27.3221678  49.4564324
  38.4683896  25.8261776  48.5284699  39.1605020  24.4257883  50.1747041
  40.8025020  24.3347883  49.8887041  41.2985020  23.0607883  50.4687041
  41.4525020  25.6057883  50.3007041  40.8975020  24.2147883  48.3607041
  40.2625020  23.1747883  47.7077041  39.3703981  23.0177370  48.3139924
  40.8134444  22.2380586  47.6234424  39.8395020  23.6477883  46.2897041
  39.4667968  22.7370683  45.8208971  38.7375020  24.5437883  46.2527041
  38.7175020  25.1057883  44.9607041  38.2514550  24.3728183  44.3021791
  37.8475020  26.3347883  44.8007041  37.9215020  27.3907883  45.6997041
  38.6376940  27.3679541  46.5077559  37.1185020  28.4647883  45.5687041
  37.2455020  29.5247883  46.6037041  38.2632339  29.9150681  46.6018400
  36.5468348  30.3323578  46.3850821  37.0196689  29.1050822  47.5839828
  36.2115020  28.5327883  44.4387041  35.4365020  29.5957883  44.1647041
  34.8382098  29.5437650  43.3526450  35.4623480  30.4115633  44.7596353
  36.0815020  27.4747883  43.6217041  36.9085020  26.4177883  43.6967041
  36.7075020  25.4767883  42.8847041  40.9465020  24.2417883  45.5107041
  41.7510983  24.6694751  46.1088753  40.2625020  25.3387883  44.7287041
  40.8944156  26.2268689  44.7188034  40.0913067  25.0038878  43.7056529
  41.4815020  23.2707883  44.5307041  42.6805020  23.6157883  43.4917041
  43.5495020  22.4027883  43.4687041  43.2735020  24.8927883  43.8327041
  41.9365020  23.7207883  42.0107041  41.4785020  22.4707883  41.4907041
  40.8743662  21.9792565  42.2532764  42.3350144  21.8409435  41.2503240
  40.6185020  22.6437883  40.1797041  40.0093478  21.7552612  40.0137218
  39.6665020  23.7297883  40.2377041  39.9945020  24.8547883  39.3717041
  39.3068471  24.9818848  38.5355962  39.9075020  26.2077883  40.1277041
  40.7565020  26.6847883  41.1057041  41.6942700  26.1758575  41.2729841
  40.3255020  27.7387883  41.7547041  39.2155020  28.1087883  41.0487041
  38.3225020  29.1847883  41.2197041  38.2715020  29.9557883  42.1957041
  37.3605020  29.2497883  40.2807041  36.8534881  30.0997207  40.1373502
  37.1745020  28.2607883  39.3897041  36.2595020  28.4027883  38.4997041
  35.6342406  29.1884571  38.3907408  36.1390109  27.6384194  37.8506101
  37.9325020  27.2137883  39.2077041  38.9175020  27.1617883  40.0887041
  41.5035020  22.9967883  38.9877041  42.5484819  22.7060752  39.0954146
  41.4025020  24.5047883  38.9367041  42.3764460  24.9423096  39.1560380
  41.0812728  24.8145131  37.9422282  41.0085020  22.3267883  37.8477041
  41.9505020  22.1457883  36.5887041  41.2885020  21.1047883  35.7697041
  43.2665020  21.9377883  37.1667041  41.8695020  23.4867883  35.8667041
  40.7435020  23.7787883  35.0127041  39.9197209  23.5716381  35.6957660
  40.8262870  23.2020202  34.0915169  40.7885020  25.3047883  34.7137041
  39.9629159  25.4173784  34.0109735  40.4375020  26.0967883  35.7897041
  41.2255020  27.2747883  35.7147041  40.3865806  27.7982543  35.2561264
  41.3395020  27.8927883  37.0327041  42.4115020  27.8767883  37.8767041
  43.2207828  27.1695404  37.7705579  42.3155020  28.8077883  38.7987041
  41.0805020  29.4667883  38.5197041  40.3995020  30.5907883  39.0917041
  40.5945020  31.2117883  40.1147041  39.2805020  31.0497883  38.3557041
  38.8578637  31.9002864  38.6687990  38.8585020  30.5427883  37.1737041
  37.9845020  31.1837883  36.5107041  37.5403250  32.0526095  36.7713893
  37.6875773  30.7706884  35.6381876  39.4895020  29.5067883  36.6347041
  40.5165020  28.9367883  37.4057041  42.0805020  25.7747883  34.0777041
  42.8168777  24.9784829  33.9693187  42.5515020  26.7577883  35.1267041
  43.5351412  26.4594141  35.4893694  42.6128714  27.7545252  34.6898409
  41.9455020  26.5497883  32.8587041  42.3105020  25.9817883  31.3967041
  41.7605020  24.6227883  31.2147041  43.7415020  26.2307883  31.1977041
  41.5625020  26.9987883  30.4267041  40.1375020  26.8547883  30.2887041
  39.7397688  26.3969201  31.1943890  39.9159366  26.2624526  29.4009272
  39.5955020  28.2497883  30.1617041  38.5253998  28.1684290  29.9710177
  39.6855020  28.7777883  31.5137041  40.1895020  30.1467883  31.4477041
  39.4045182  30.9022306  31.4129676  40.9005020  30.4677883  32.6837041
  42.0425020  29.8757883  33.1517041  42.4821111  29.0776693  32.5719184
  42.5275020  30.3817883  34.2397041  41.5735020  31.3307883  34.6307041
  41.4495020  32.2397883  35.6587041  42.2705020  32.4237883  36.7047041
  42.0602105  33.1321561  37.3932489  43.0985042  31.8538607  36.8031602
  40.4785020  33.1487883  35.5927041  39.5755020  33.0997883  34.6667041
  38.7912142  33.8406609  34.6177191  39.4495020  32.2197883  33.6957041
  40.5865020  31.4077883  33.6747041  40.2665020  29.2667883  29.2177041
  40.9230733  28.8067025  28.4792368  41.0945020  30.1397883  30.1627041
  42.1533156  30.0236295  29.9313602  40.8082793  31.1840967  30.0378172
  39.1975020  29.9687883  28.4487041  39.6065020  31.2517883  27.5227041
  38.7335020  31.3777883  26.3487041  41.0415020  31.1307883  27.1877041
  39.5305020  32.4667883  28.4617041  38.2225020  32.7837883  29.0687041
  38.2107579  32.3719176  30.0778249  37.4295318  32.3024280  28.4963483
  37.8645020  34.2987883  29.1297041  36.7954665  34.4713447  29.2541501
  38.4485020  34.7607883  30.3567041  39.6775020  35.3737883  30.1017041
  39.7691457  36.4382056  30.3178438  40.7975020  34.7797883  30.8697041
  41.5785020  33.6277883  30.6077041  41.5947289  33.2512472  29.5955999
  42.2535020  33.1607883  31.5997041  42.1315020  34.2257883  32.5127041
  42.8365020  34.5837883  33.6987041  43.8145020  33.8567883  34.2687041
  44.2625433  34.1860809  35.1118688  44.1006899  32.9817038  33.8534663
  42.5585020  35.7127883  34.2877041  41.5975020  36.4957883  33.8837041
  41.2816419  37.3765364  34.4230688  40.8735020  36.3347883  32.7697041
  41.2055020  35.1807883  32.1357041  38.4825020  35.1807883  28.0237041
  38.5950896  34.7654165  27.0222607  39.8545020  35.5067883  28.5947041
  40.6266634  35.1244310  27.9271197  39.9609912  36.5872530  28.6914314
  37.6605020  36.3237883  27.9417041  38.0635020  37.6707883  27.0317041
  36.7645020  38.3087883  26.7207041  38.9345020  37.2497883  25.9067041
  38.9595020  38.6227883  28.0307041  38.3205020  39.1687883  29.1337041
  37.8696005  38.2990219  29.6115057  37.6078479  39.9248013  28.8040542
  39.2885020  39.8397883  30.1177041  38.7978727  40.2201807  31.0136304
  40.1785020  38.8537883  30.5937041  41.4935020  39.4057883  30.6517041
  41.7357971  39.8889894  31.5982288  42.6095020  38.2947883  30.5237041
  42.6805020  37.4507883  29.4437041  42.0536419  37.5928248  28.5757916
  43.5305020  36.4017883  29.4657041  43.6675020  35.3547883  28.3857041
  43.9569045  35.8330134  27.4499443  44.4301872  34.6316494  28.6746356
  42.7144199  34.8430583  28.2520386  44.3665020  36.1657883  30.6647041
  45.1085020  35.2457883  30.9007041  44.3725020  37.1357883  31.6787041
  45.1354518  37.1747650  32.4561931  43.4495020  38.1897883  31.6467041
  43.4725020  39.0217883  32.5047041  39.9845020  40.9917883  29.3997041
  39.7451755  41.1244356  28.3446087  41.4625020  40.5237883  29.5417041
  41.9649862  40.6079631  28.5781050  41.9736178  41.1495800  30.2733090
  39.5775020  42.1707883  29.9907041  40.1285020  43.5677883  29.4397041
  39.1635020  44.6577883  29.8017041  40.6305020  43.4327883  28.0687041
  41.4105020  43.8237883  30.1847041  41.3825020  43.7967883  31.6427041
  40.7994850  42.9413375  31.9838717  40.8835095  44.6920449  32.0136796
  42.7455020  43.7517883  32.2787041  42.8042607  43.8306453  33.3642585
  43.2425020  42.5187883  31.9997041  44.5765020  42.6557883  31.4827041
  45.3144450  42.9274864  32.2375018  45.1915020  41.5157883  30.8187041
  44.7315020  41.1357883  29.5597041  43.9842319  41.6986982  29.0201488
  45.2995020  40.0127883  28.9477041  44.8605020  39.5697883  27.5737041
  45.0468785  40.3693947  26.8567712  45.4213706  38.6821404  27.2811165
  43.7956842  39.3373660  27.5892765  46.3205020  39.2387883  29.6047041
  46.7995020  38.1947883  29.2777041  46.6595020  39.6947883  30.8897041
  47.5470294  39.2580368  31.3475731  46.0935020  40.7597883  31.5357041
  46.4985020  41.1357883  32.6287041  43.6615020  44.7627883  31.5757041
  43.1233502  45.5434406  31.0380487  44.5115020  43.9387883  30.5757041
  44.2614970  44.2334937  29.5565155  45.5698838  44.1250802  30.7579773
  44.5345020  45.3387883  32.5327041  44.9065020  46.8107883  32.6867041
  43.9005020  47.3557883  33.6037041  45.0145020  47.3757883  31.4077041
  46.3955020  46.9987883  33.2247041  46.8625020  46.7157883  34.5517041
  46.1195450  46.0362998  34.9693289  46.8921671  47.6383400  35.1314618
  48.2255020  46.1167883  34.7167041  48.4940438  45.8468904  35.7380463
  48.0975020  44.8657883  34.0377041  49.2915020  44.6767883  33.2637041
  49.8167747  44.0446390  33.9796477  48.9735020  43.7377883  32.1247041
  48.0045020  44.0717883  31.1847041  47.3558130  44.9257008  31.3129068
  47.8685020  43.2997883  30.0687041  47.2479957  43.6833483  29.2587943
  48.6975020  42.1387883  29.9367041  48.5795020  41.3897883  28.8727041
  49.1747428  40.5768603  28.8024398  47.9115277  41.6283556  28.1536789
  49.7055020  41.8677883  30.7277041  49.8405020  42.6807883  31.8477041
  50.7175020  42.3907883  32.7157041  49.3505020  46.9487883  34.0467041
  49.0876560  47.9657347  33.7554470  49.6455020  46.1347883  32.8157041
  49.4396216  46.7314060  31.9270199  50.6943103  45.8379825  32.8184741
  50.4765020  46.9847883  34.8907041  51.7685020  47.8837883  34.5427041
  52.3555020  48.3837883  35.7547041  51.3665020  48.8427883  33.4547041
  52.6765020  46.7767883  33.8707041  53.2725020  45.7487883  34.6537041
  52.3923719  45.2514200  35.0612529  53.9122415  46.1956561  35.4147187
  54.1765020  44.6967883  33.9577041  54.4654747  44.0169714  34.7592296
  53.5945020  43.8447883  32.9547041  54.6015020  43.5697883  31.9687041
  55.2775485  42.7657641  32.2595744  54.0445020  43.0887883  30.6877041
  52.9565020  43.8097883  30.2037041  52.6541484  44.6494260  30.8119730
  52.2935020  43.5657883  29.0737041  51.1665020  44.4757883  28.6377041
  51.5478729  45.4878024  28.5017517  50.7509843  44.1151900  27.6967398
  50.3874274  44.4810120  29.4000132  52.6755020  42.3497883  28.2737041
  52.1355020  41.9347883  27.2587041  53.7375020  41.6407883  28.8757041
  53.9519544  40.6924921  28.3829109  54.5085020  41.9517883  30.0297041
  55.4155020  41.2677883  30.4047041  55.3955020  45.3517883  33.2477041
  55.3045841  46.4353572  33.3232759  55.2785020  44.9307883  31.7797041
  55.2558303  45.8183231  31.1473537  56.1353590  44.3139907  31.5086748
  56.6275020  44.9997883  33.9007041  57.9615020  45.7387883  33.7847041
  58.5665020  45.6957883  35.1537041  57.8145020  47.0177883  33.0747041
  58.7395020  44.6707883  32.7837041  58.9985020  43.3227883  33.0827041
  58.0301421  42.9044026  33.3571722  59.6529065  43.2622138  33.9522937
  59.6795020  42.3947883  32.0647041  59.8466956  41.4038870  32.4869129
  58.7265020  42.1767883  30.9917041  59.2825020  42.3947883  29.7347041
  59.7079570  41.5464918  29.1985322  58.1905020  42.8427883  28.8377041
  57.5415020  44.0287883  28.9687041  58.0199428  44.8519465  29.4785130
  56.4365020  44.2677883  28.2627041  55.8135020  45.5807883  28.4417041
  56.5202666  46.3605899  28.1579918  54.9250408  45.6505592  27.8141145
  55.5307858  45.7099894  29.4864424  55.9575020  43.3927883  27.1967041
  54.9125020  43.5097883  26.5687041  56.6565020  42.2367883  27.1147041
  56.4617569  41.6497189  26.2171939  57.7515020  41.8507883  27.8947041
  58.4015020  40.8387883  27.5577041  60.9245020  42.9687883  31.3427041
  61.2579701  43.8512112  31.8888064  60.4105020  43.3927883  29.9357041
  60.6609023  44.4384331  29.7567467  60.8813171  42.7714525  29.1738805
  61.9885020  42.0757883  31.4257041  63.4615020  42.4117883  30.8227041
  64.4695020  41.3947883  31.1997041  63.6285020  43.8177883  31.2327041
  63.3045020  42.3877883  29.2267041  63.1075020  41.1507883  28.5017041
  62.1452028  40.7895136  28.8644175  63.9384845  40.4747467  28.7030409
  63.0295020  41.3557883  26.9877041  63.1590273  40.3547189  26.5763859
  61.7665020  41.7607883  26.5347041  61.8445020  42.7197883  25.5547041
  61.8606624  42.1491221  24.6261686  60.5935020  43.5337883  25.4477041
  60.3295020  44.6617883  26.2437041  60.9796893  45.0129603  27.0313173
  59.1905020  45.3307883  25.9917041  58.9194149  46.1824069  26.6156895
  58.3235020  44.7997883  24.9537041  57.2195020  45.4147883  24.8707041
  56.5605473  45.1042851  24.1710849  57.0192546  46.1872889  25.4897722
  58.5595020  43.7427883  24.2277041  59.7305020  43.1427883  24.4177041
  59.9845020  42.1867883  23.6627041  64.0165020  42.3627883  26.3997041
  64.7471006  42.7226130  27.1241699  63.0435020  43.4557883  26.0877041
  63.2386670  44.3119440  26.7334651  63.1541417  43.7548306  25.0453833
  64.6915020  41.9637883  25.1697041  65.8395020  40.8567883  25.0997041
  65.3405020  39.6617883  25.8327041  67.0105020  41.5787883  25.5447041
  65.8785020  40.4627883  23.4997041  64.9655020  39.5007883  22.8477041
  64.2061330  39.2931680  23.6015958  65.5240318  38.6132243  22.5504244
  64.2865020  40.0627883  21.5877041  63.8935668  39.2418796  20.9878624
  63.2065020  40.8607883  21.8237041  63.4535020  42.1117883  21.1327041
  63.1864365  41.9838670  20.0836992  62.6335020  43.3267883  21.5497041
  63.0775020  44.2557883  22.4497041  64.1131648  44.2144853  22.7531788
  62.3125020  45.3107883  22.8647041  63.0175020  46.3227883  23.7287041
  63.8563074  46.7494178  23.1787111  62.3215321  47.1160323  24.0016323
  63.3856946  45.8364725  24.6320483  60.9545020  45.4347883  22.3767041
  60.1045020  46.3157883  22.6387041  60.5535020  44.5177883  21.5007041
  59.4988084  44.5245618  21.2256110  61.3455020  43.4767883  20.9627041
  60.9675020  42.6657883  20.1037041  65.3375020  40.8737883  20.8047041
  66.3407976  40.6360522  21.1582269  64.9775020  42.2507883  21.2267041
  65.7789020  42.6650949  21.8384289  64.8338533  42.8756390  20.3452129
  65.2745020  40.8577883  19.3147041  66.1945020  39.9327883  18.4527041
  66.0365020  38.5107883  18.8847041  67.5395020  40.5357883  18.5487041
  65.8535020  39.9767883  16.9287041  64.6175020  39.4537883  16.4017041
  64.0267701  39.0217163  17.2094477  64.8339074  38.6626918  15.6837656
  63.7855020  40.5277883  15.6867041  62.8529471  40.1672563  15.2525874
  63.3935020  41.3987883  16.6657041  63.6765020  42.7687883  16.2687041
  62.6781798  42.9838449  15.8876493  63.7955020  43.6797883  17.4187041
  64.9595020  44.0267883  18.0297041  65.8697951  43.5061015  17.7715312
  64.8585020  45.0397883  18.8597041  63.4915020  45.4197883  18.7027041
  62.6125020  46.3587883  19.2667041  62.8955020  47.3587883  20.0307041
  62.1581504  47.9605326  20.3688132  63.8544469  47.5400646  20.2908238
  61.3315020  46.3727883  18.9717041  60.8045020  45.6347883  18.0227041
  59.7842203  45.6853181  17.6721744  61.5005020  44.6887883  17.3457041
  62.8355020  44.5587883  17.8157041  64.6225020  41.3617883  14.6767041
  65.5591807  40.9347051  14.3184700  64.9055020  42.6657883  15.4027041
  65.9742862  42.7475970  15.6004587  64.5859390  43.5038448  14.7833166
  63.7295020  41.5907883  13.5317041  64.1128310  42.1009343  12.8144814
  61.7594308  56.6132502  15.1153382  61.1085020  55.9077883  15.1007041
  60.5975020  55.4527883  13.8287041  61.4482943  55.0637614  13.2693196
  60.1299630  56.2592168  13.2637429  59.6055020  54.3597883  14.0347041
  59.1445367  54.1743121  13.0645448  60.2635020  53.1117883  14.3687041
  59.3535020  52.4367883  15.1707041  58.8061004  52.1009181  14.2899977
  59.8825020  51.1817883  15.7307041  59.6845020  49.8857883  15.3397041
  58.8407104  49.6711368  14.7006876  60.5905020  49.0217883  15.7387041
  61.5625020  49.8957883  16.3747041  62.8665020  49.8047883  16.9817041
  63.5255020  48.5877883  17.0557041  64.4391165  48.5333727  17.4828406
  63.0921297  47.7553203  16.6824938  63.4655020  50.7967883  17.6547041
  62.8455020  51.9587883  17.6457041  63.2078897  52.8137200  18.1972168
  61.7475020  52.2527883  17.0017041  61.0545020  51.1717883  16.4767041
  58.5745020  54.5827883  15.1427041  58.7254177  55.5382877  15.6450433
  58.7335020  53.4547883  16.1437041  58.8950145  53.8708686  17.1381349
  57.8315249  52.8428129  16.1485718  57.3615020  54.7067883  14.4857041
  55.9635020  54.6677883  15.3207041  54.8535020  55.1557883  14.4867041
  56.2465020  55.3627883  16.6167041  55.7075020  53.1157883  15.7207041
  55.4235020  52.1577883  14.7787041  56.2233422  52.2533552  14.0443863
  54.4443498  52.3554425  14.3424766  55.3825020  50.7287883  15.2887041
  55.4659693  50.0294962  14.4567648  56.6585020  50.5757883  16.0327041
  56.3115020  49.7367883  17.0957041  56.0979937  48.6975947  16.8455239
  57.4215020  49.6197883  18.1197041  57.7095020  50.6957883  18.9577041
  57.1399788  51.6113386  18.8959685  58.8105020  50.6567883  19.7797041
  59.2465020  51.8597883  20.5657041  58.4453198  52.1643962  21.2390693
  60.1346371  51.6122275  21.1471072  59.4764659  52.6771748  19.8822605
  59.7155020  49.5577883  19.7997041  60.7405020  49.4307883  20.4747041
  59.2705020  48.5057883  18.9857041  59.8217404  47.5742162  19.1138070
  58.2185020  48.4887883  18.0877041  57.9995020  47.5627883  17.3787041
  54.2235020  50.3517883  16.2147041  53.4698494  51.1338144  16.3071254
  54.9645020  50.2037883  17.5337041  54.5546825  50.9037957  18.2618091
  54.8480457  49.1853147  17.9041764  53.6065020  49.0717883  15.9277041
  52.2225020  49.0797883  15.1087041  52.3625020  49.7577883  13.8477041
  51.1505020  49.3697883  15.9867041  51.9885020  47.4917883  14.7737041
  52.6545020  46.6887883  13.7417041  53.3424299  47.3881697  13.2666034
  51.9085712  46.2850220  13.0571162  53.4365020  45.5217883  14.2947041
  53.9298544  45.0539518  13.4427465  54.4915020  45.8537883  15.1767041
  54.5115020  45.0607883  16.3327041  55.2367886  44.2573875  16.2038413
  54.9525020  45.7107883  17.5987041  54.3945020  46.6977883  18.2747041
  53.3845999  46.9761171  18.0119639  55.1135020  47.2157883  19.2587041
  56.1235020  46.1857883  19.3857041  57.3015020  45.9847883  20.2117041
  57.6185020  46.6807883  21.2857041  58.4628048  46.4650138  21.7962876
  57.0170344  47.4297239  21.5978435  58.1715020  44.9947883  19.9517041
  57.8325020  44.1407883  19.0077041  58.3534156  43.1992996  18.9147139
  56.8535020  44.2547883  18.0487041  56.0995020  45.3397883  18.2977041
  52.5205020  44.5257883  15.0647041  51.4521706  44.7414671  15.0804972
  53.0595020  44.5427883  16.4787041  52.2606603  44.8128237  17.1693792
  53.4415224  43.5544604  16.7343773  52.7055020  43.2737883  14.4217041
  51.6635020  42.1107883  14.2797041  51.9915020  41.3377883  13.0387041
  50.2795020  42.7447883  14.3957041  51.7615020  41.1417883  15.5107041
  52.9285020  40.2747883  15.6197041  53.7610218  40.7969945  15.1482049
  52.7532579  39.3565943  15.0590705  53.3625020  39.8007883  17.0587041
  54.2047193  39.1106260  17.0092526  53.8465020  40.8857883  17.7507041
  53.4295020  40.8597883  19.1277041  54.2730790  40.2625833  19.4738593
  53.6745020  42.2077883  19.7387041  52.7615020  43.2237883  19.9427041
  51.8458117  43.1800173  19.3717424  53.0865020  44.1547883  20.8107041
  54.2925020  43.6457883  21.2757041  55.2225020  44.0347883  22.3627041
  55.1805020  45.0487883  23.1317041  56.3505020  43.3317883  22.3787041
  57.0577974  43.6159480  23.0259947  56.6485020  42.2977883  21.5347041
  57.8605020  41.8017883  21.6257041  58.5983021  42.1092143  22.2431510
  58.0861008  41.0438097  20.9974728  55.8565020  41.7757883  20.5717041
  54.7495020  42.5757883  20.4677041  52.1975020  39.2937883  17.9617041
  51.2464631  39.0670857  17.4798018  51.9965020  40.4267883  18.9877041
  51.0517832  40.9332801  18.7900385  51.9799843  40.0078343  19.9938378
  52.6845020  38.1497883  18.6467041  52.8705020  36.7777883  17.8437041
  53.1905020  36.9547883  16.4487041  51.6755020  35.9787883  18.2417041
  54.1085020  36.2197883  18.6747041  55.3565020  36.8847883  18.5617041
  55.2370842  37.8697441  19.0130370  55.6329563  36.9634977  17.5102868
  56.4505020  36.1307883  19.2927041  57.2475113  35.9425124  18.5733797
  57.0185020  37.0447883  20.2227041  56.4295020  36.7767883  21.4717041
  57.1273513  36.6630632  22.3012656  55.5585020  37.9017883  21.9177041
  54.3165020  38.2137883  21.5177041  53.7815300  37.6337042  20.7803379
  53.8345020  39.2677883  22.1927041  54.8645020  39.6907883  23.0037041
  55.0625020  40.7337883  24.0087041  54.1745020  41.6387883  24.4437041
  54.4422230  42.3105503  25.1488017  53.2376904  41.6489284  24.0663715
  56.2385020  40.8797883  24.6647041  57.1885020  39.9997883  24.3817041
  58.1238352  40.0250325  24.9210682  57.1875020  39.0247883  23.4867041
  55.9355020  38.8987883  22.7977041  56.0825020  34.8617883  20.1197041
  55.2828238  34.3273254  19.6069050  55.5345020  35.4927883  21.3997041
  54.5203673  35.1345731  21.5766558  56.1689339  35.2167197  22.2419526
  57.1615020  33.9107883  20.2937041  57.1265020  32.6457883  21.2527041
  58.3085020  31.7957883  20.9737041  55.7505020  32.0637883  21.1077041
  57.3615020  33.1197883  22.8167041  58.6325020  33.4267883  23.2877041
  58.9255012  34.3167519  22.7307336  59.2880618  32.5664294  23.1530770
  58.5245020  33.7817883  24.7997041  59.5656033  33.9286353  25.0871816
  57.8745020  35.0917883  25.0717041  56.7435020  34.8987883  25.9007041
  56.8630481  34.9873555  26.9805022  55.6215020  35.8767883  25.5997041
  54.6235020  35.8707883  24.6737041  54.5237462  35.0236716  24.0112514
  53.8295020  36.8977883  24.7247041  54.3475020  37.6817883  25.7487041
  53.8685020  38.8047883  26.4977041  52.8455020  39.5377883  26.1667041
  52.5709526  40.3148211  26.7506082  52.3260522  39.3296737  25.3258956
  54.6015020  39.3547883  27.3937041  55.7475020  38.7897883  27.6597041
  56.3988617  39.2716154  28.3738276  56.3045020  37.6617883  27.1907041
  55.5475020  37.1487883  26.1907041  57.8085020  32.7717883  25.6947041
  57.7284392  31.7964762  25.2146467  56.4105020  33.4427883  25.7387041
  55.6901672  32.8178158  25.2108534  56.0964588  33.5616943  26.7756894
  58.3315020  32.5997883  27.0327041  57.6015020  31.7297883  28.1167041
  58.7625020  31.2117883  28.9297041  56.6195020  30.7707883  27.5307041
  56.8035020  32.7677883  29.0367041  57.3665020  33.7627883  29.8907041
  57.6909661  34.4588304  29.1171743  58.1270392  33.3089370  30.5260802
  56.4425020  34.4557883  30.8107041  57.1099312  34.9283541  31.5313421
  55.8695020  35.5477883  30.0827041  54.4355020  35.5827883  30.4857041
  54.5833206  36.2766946  31.3131961  53.5105020  36.2897883  29.6027041
  52.8945020  35.8097883  28.4737041  53.2465588  34.8927936  28.0247289
  51.9355020  36.5237883  28.0547041  51.8865020  37.5747883  29.0217041
  51.0105020  38.7357883  29.1027041  50.1485020  39.0707883  28.3467041
  51.4005020  39.5277883  30.0727041  51.1436809  40.4792107  29.9028900
  52.3625020  39.2927883  31.0257041  52.7295020  40.2927883  31.8437041
  52.3803658  41.2405164  31.8397476  53.4454683  40.0798416  32.5235180
  53.1925020  38.2837883  30.9297041  52.9115020  37.4577883  29.8787041
  55.3755020  33.6507883  31.5367041  55.5339668  32.5734891  31.4875698
  54.1495020  34.0147883  30.7407041  53.8020474  33.1418545  30.1881092
  53.3639254  34.3526524  31.4165869  55.1295020  34.0707883  32.8657041
  56.0995020  33.6367883  34.1137041  57.5015020  33.9147883  33.7467041
  55.8205020  32.2227883  34.5547041  55.5855020  34.5437883  35.2987041
  56.0155020  35.9117883  35.3367041  56.2009674  36.1641385  34.2926630
  56.9348857  35.9882105  35.9172159  55.0515020  36.9937883  35.9697041
  55.6027768  37.8868710  36.2639806  54.1225020  37.4517883  35.0097041
  52.8065020  37.0947883  35.4147041  52.2727678  37.9600666  35.8077952
  51.9655020  36.6757883  34.2717041  52.0145020  35.5317883  33.5097041
  52.6719196  34.7150435  33.7688017  51.1535020  35.5437883  32.5217041
  50.4275020  36.7257883  32.6627041  49.4155020  37.3767883  31.9147041
  48.9235020  36.8667883  30.7917041  48.2021381  37.3609438  30.2861888
  49.2706475  35.9847253  30.4430585  48.9865020  38.5857883  32.2307041
  49.5405020  39.2057883  33.3057041  49.2878936  40.2280405  33.5456800
  50.3965020  38.7267883  34.1627041  50.8835020  37.4757883  33.7737041
  54.2355020  36.4217883  37.1107041  54.7541908  35.5328222  37.4695914
  52.9255020  36.0207883  36.4867041  52.7436926  34.9619796  36.6710105
  52.1188804  36.6089733  36.9243115  54.2335020  37.2807883  38.1897041
  53.3165020  37.2577883  39.4577041  53.9205020  38.0767883  40.4827041
  53.0805020  35.8247883  39.7307041  51.9275020  37.9947883  38.9187041
  52.0855020  39.2947883  38.4917041  52.5135001  39.3048293  37.4892986
  52.7720841  39.8159869  39.1588305  50.7485020  40.0627883  38.4797041
  50.8269711  41.1334897  38.2911824  49.9725020  39.5817883  37.4347041
  48.7425020  38.9847883  37.9057041  47.8738484  39.6057569  37.6867560
  48.5235020  37.8037883  37.0667041  49.0465020  36.5667883  37.2007041
  49.7338820  36.3901017  38.0147632  48.6165020  35.6727883  36.3517041
  47.6995020  36.4397883  35.5287041  46.8845020  36.2297883  34.3677041
  46.8135020  35.0887883  33.6767041  46.2120928  35.0248650  32.8678023
  47.3612282  34.2900098  33.9631440  46.1545020  37.2477883  33.8257041
  46.2045020  38.4007883  34.4647041  45.5467379  39.2181968  34.2086012
  46.9985020  38.7337883  35.4467041  47.7045020  37.7357883  36.0007041
  49.9615020  39.7507883  39.7907041  50.4806341  39.3788599  40.6740330
  48.9525020  38.7617883  39.3597041  49.1289930  37.8154687  39.8710057
  47.9558587  39.1274019  39.6069471  49.3975020  40.9957883  40.1107041
  48.3485020  41.2197883  41.3217041  48.3425020  42.6017883  41.7747041
  48.4775020  40.1607883  42.3527041  47.0765020  41.0857883  40.4237041
  46.6815020  42.0577883  39.4207041  47.4419157  42.0152923  38.6409189
  46.5847038  43.0397284  39.8838718  45.3805020  41.6257883  38.8567041
  45.1023015  42.3011729  38.0476557  45.6595020  40.4227883  38.2247041
  44.3505020  39.8587883  38.1897041  43.9550860  40.2585672  37.2559364
  44.6015020  38.4257883  37.8617041  45.3185020  37.6077883  38.7497041
  45.5593015  37.9618147  39.7412086  45.5255020  36.3137883  38.4587041
  46.2055020  35.4617883  39.5347041  45.5979280  35.4656294  40.4396564
  46.3133143  34.4387172  39.1744235  47.1898614  35.8738472  39.7568382
  44.9655020  35.7477883  37.2547041  45.2705020  34.6747883  36.7337041
  44.1375020  36.5187883  36.5297041  43.6831348  36.0884514  35.6372573
  43.8725020  37.8217883  36.7807041  43.0985020  38.4347883  36.0587041
  44.2245020  41.4577883  39.8327041  44.4317099  41.5531281  40.8985719
  43.7085020  40.0567883  39.5397041  43.6712090  39.4818702  40.4650029
  42.7082932  40.1196770  39.1110694  43.3025020  42.5547883  39.4807041
  41.7715020  42.7097883  39.9877041  41.3525020  44.0777883  39.8987041
  41.7535020  42.0727883  41.3127041  40.9555020  41.8407883  38.9637041
  40.9815020  42.0957883  37.5477041  42.0128966  41.9072030  37.2497766
  40.6467176  43.1151132  37.3553586  40.0635020  41.1277883  36.8137041
  40.0576968  41.4533132  35.7734642  40.7495020  39.8617883  36.7917041
  39.7155020  38.8907883  36.9867041  39.4304958  38.6215768  35.9696516
  40.2635020  37.6417883  37.5167041  40.9185020  37.6527883  38.7197041
  41.0889630  38.6138557  39.1819732  41.4175020  36.5247883  39.3337041
  42.2665020  36.5947883  40.6307041  41.6817887  37.0612003  41.4235911
  42.5508294  35.5872662  40.9342782  43.1641035  37.1851405  40.4465978
  41.2475020  35.2217883  38.6777041  41.6865020  34.1297883  39.0317041
  40.4245020  35.2927883  37.5317041  40.2392769  34.3497533  37.0174304
  39.9565020  36.4567883  36.9047041  39.4665020  36.3007883  35.8187041
  38.6595020  40.8967883  37.3287041  38.3278092  41.6102876  38.0830233
  38.6955020  39.5327883  37.9187041  38.5238533  39.5964940  38.9932168
  37.9188173  38.9186275  37.4629984  37.7605020  41.0127883  36.1867041
  36.1555020  41.1687883  36.4537041  35.5165020  41.6127883  35.2597041
  35.9555020  42.0237883  37.6277041  35.5035020  39.7897883  36.8187041
  35.3215020  38.8297883  35.8157041  36.1392860  38.8876502  35.0973857
  34.4047245  39.0459769  35.2671768  35.2035020  37.3677883  36.3407041
  35.0127363  36.5899930  35.6012839  36.4185020  36.9537883  36.9947041
  35.9155020  36.0497883  37.9727041  35.4572233  35.1841817  37.4943683
  36.9855020  35.4347883  38.8877041  37.6765020  36.2007883  39.7607041
  37.5215903  37.2695688  39.7712158  38.5565020  35.6617883  40.6207041
  39.2102999  36.3184252  41.1947046  38.7345020  34.1847883  40.5637041
  39.6095020  33.5807883  41.2967041  39.6810100  32.5769470  41.2113231
  40.1950052  34.1076765  41.9289037  38.1535020  33.4887883  39.6307041
  37.3025020  34.0887883  38.7407041  36.8435020  33.4217883  37.7877041
  34.1215020  37.4067883  37.4567041  33.6706981  38.3746920  37.6758776
  34.8805020  36.9017883  38.6967041  34.8874130  37.6792084  39.4606868
  34.3866635  36.0125315  39.0884261  33.1425020  36.4687883  37.1537041
  31.7265020  36.8547883  36.5527041  31.8075020  37.5007883  35.2377041
  31.0325020  37.5077883  37.6497041  31.0425020  35.4687883  36.3037041
  31.6265020  34.4747883  35.4597041  32.6162346  34.8315561  35.1746674
  30.9976863  34.4018157  34.5723678  31.7575020  33.0717883  36.1087041
  31.8937759  32.2787775  35.3734060  32.9875020  33.0407883  36.9167041
  32.6495020  32.2707883  38.0417041  32.7756131  31.2285687  37.7484904
  33.7305020  32.4897883  39.0277041  33.8495020  33.6237883  39.7757041
  33.2854882  34.5201737  39.5640876  34.7185020  33.6177883  40.8467041
  34.7365020  34.7887883  41.7707041  33.7511147  34.9131102  42.2197653
  35.4743706  34.6217773  42.5554062  34.9971905  35.6883237  41.2130506
  35.5535020  32.5047883  41.0377041  36.2875020  32.3387883  42.1377041
  36.8623344  31.5105167  42.1979861  36.2593801  33.0262769  42.8770745
  35.4925020  31.4177883  40.2887041  34.6235020  31.4697883  39.2797041
  34.4565020  30.4187883  38.6077041  30.5615020  32.7657883  37.1097041
  29.8271258  33.5709101  37.0858187  31.2235020  32.7377883  38.4417041
  30.7336454  33.4492577  39.1064987  31.1487903  31.7357630  38.8641536
  29.9345020  31.4987883  36.9337041  28.9495020  31.2277883  35.7937041
  29.1895020  32.1637883  34.6717041  27.6205020  31.1167883  36.4057041
  29.2775020  29.7947883  35.3677041  30.1715020  29.3657883  34.3147041
  30.8875250  30.1664789  34.1294863  29.5956012  29.1446299  33.4160786
  30.9215020  28.1147883  34.7517041  31.6082297  27.8000419  33.9659312
  31.7485020  28.3287883  35.8807041  31.3715020  27.4547883  36.9537041
  32.0647838  26.6146993  36.9950567  31.5805020  28.1287883  38.2017041
  30.9335020  29.2887883  38.6977041  30.1890047  29.7626923  38.0751764
  31.3065020  29.6847883  39.8827041  32.2555020  28.6947883  40.2117041
  33.1325020  28.6887883  41.3247041  33.2215020  29.4527883  42.2587041
  33.8995020  27.5577883  41.3967041  34.4824640  27.3934235  42.1924039
  33.9335020  26.6837883  40.4427041  34.7255020  25.6847883  40.6877041
  35.2945503  25.5479231  41.5108397  34.7951237  24.9776973  39.9698768
  33.3195020  26.7017883  39.2997041  32.4865020  27.7827883  39.2177041
  29.9165020  26.9757883  35.1577041  28.9013374  27.1063120  34.7828666
  29.9085020  27.0447883  36.6947041  28.9209839  27.3508034  37.0400476
  30.1480897  26.0634680  37.1042263  30.4065020  25.7437883  34.5897041
  29.7615020  24.3337883  35.0207041  30.1115020  23.3427883  33.9567041
  28.3445020  24.4877883  35.2517041  30.4535020  23.9667883  36.4347041
  31.8045020  23.5197883  36.3607041  32.2996757  24.4908006  36.3668770
  31.9250335  22.8673638  35.4958833  32.2045020  22.7527883  37.5917041
  33.1629144  22.3163974  37.3104429  32.5025020  23.5637883  38.7577041
  31.8145020  22.9497883  39.8627041  32.5278442  22.3705468  40.4489818
  31.4515020  24.0727883  40.7867041  30.4285020  24.9477883  40.4987041
  29.9404940  24.8533941  39.5398829  30.0665020  25.9317883  41.3007041
  28.8905020  26.8317883  40.8547041  27.9946606  26.2238427  40.7283315
  28.7079027  27.5938777  41.6123169  29.1389380  27.3128508  39.9086820
  30.8445020  26.2197883  42.4687041  30.7455020  27.1737883  43.2797041
  31.7955020  25.2977883  42.7707041  32.3027291  25.4172476  43.7280708
  32.1185020  24.1707883  42.0287041  32.8485020  23.3227883  42.4987041
  31.1925020  21.6297883  37.9017041  30.3428102  21.5132909  37.2289850
  30.6975020  22.1497883  39.2727041  29.6227377  22.3259490  39.2285628
  30.9123233  21.4083025  40.0422176  31.8315020  20.3797883  38.1167041
  31.0535020  19.0267883  38.3347041  31.8455020  17.8767883  37.8447041
  29.6665020  19.1337883  37.9527041  31.0255020  18.8647883  39.9327041
  32.2555020  18.6557883  40.5487041  32.9599285  19.3069133  40.0310948
  32.5232361  17.6015310  40.4782720  32.1975020  19.0377883  41.9697041
  33.1901919  18.9101789  42.4014238  31.8685020  20.3597883  42.2387041
  31.2345020  20.4077883  43.4657041  31.9601673  20.5247383  44.2705841
  30.3905020  21.6427883  43.5897041  29.4445020  21.9787883  42.6447041
  29.2518464  21.2189303  41.9018044  28.6355020  23.0897883  42.6787041
  27.4995020  23.2737883  41.6127041  26.8000538  22.4404210  41.6788162
  26.9702520  24.2075892  41.8024677  27.9377183  23.3013888  40.6150549
  28.7915020  23.9937883  43.8227041  28.0615020  24.9827883  44.0807041
  29.7035020  23.6017883  44.7557041  29.7929628  24.2391934  45.6353701
  30.5365020  22.5037883  44.6967041  31.3015020  22.4597883  45.6207041
  31.1535020  18.1427883  42.6687041  30.4176361  17.7472334  41.9686066
  30.4725020  19.1417883  43.6177041  29.4242386  18.8697458  43.7411389
  30.9697627  19.1193855  44.5874103  31.7935020  16.9837883  43.1787041
  31.2695020  16.0677883  44.4377041  32.2165020  14.9497883  44.4797041
  29.7955020  15.8577883  44.2017041  31.3885020  16.9207883  45.8277041
  32.6705020  17.4597883  46.1347041  32.8926751  18.1115892  45.2897813
  33.3979019  16.6510527  46.2049662  32.8385020  18.2677883  47.4667041
  33.8927417  18.4548532  47.6708721  32.2495020  19.5587883  47.4267041
  31.3365020  19.6617883  48.4767041  31.7474063  20.2662316  49.2853482
  30.1065020  20.4607883  48.0147041  29.2845020  19.9917883  47.0417041
  29.4915099  19.0681029  46.5217495  28.1825020  20.6927883  46.7137041
  27.5826463  20.3273333  45.8802078  27.9795020  21.9697883  47.3197041
  26.9865020  22.8217883  46.9027041  26.9000598  23.7096165  47.3764016
  26.3715273  22.5557544  46.1469704  28.8025020  22.4947883  48.1427041
  29.8315020  21.7437883  48.5807041  30.5105020  22.1797883  49.5617041
  32.1355020  17.4987883  48.6377041  31.8868761  16.4546299  48.4479220
  30.8675020  18.2757883  48.9227041  30.0014855  17.6441330  48.7249004
  30.8585315  18.5870639  49.9672745  33.0775020  17.5717883  49.8007041
  33.0035020  16.5107883  51.0367041  34.4275020  16.3917883  51.4457041
  32.3995020  15.2867883  50.5057041  32.0435020  17.0267883  52.1377041
  32.5415020  17.8877883  53.1287041  33.2471906  18.5848431  52.6767992
  33.0166691  17.3012557  53.9150224  31.3145020  18.6907883  53.6987041
  31.6120605  19.5421416  54.3108772  30.5225020  19.2397883  52.7017041
  29.1865020  18.9387883  53.0217041  28.9075327  19.7136629  53.7357382
  28.2545020  19.1607883  51.8787041  27.9065020  18.2067883  51.0507041
  28.3179404  17.2118306  51.1354243  27.0255020  18.4627883  50.0797041
  26.8826476  17.6812507  49.3334522  26.4245020  19.7817883  49.9727041
  25.6385020  20.0537883  48.9247041  25.2312476  20.9764349  48.8702282
  25.4676279  19.3503960  48.2203301  26.7755020  20.7297883  50.8297041
  27.6765020  20.4787883  51.7977041  27.8585020  21.3147883  52.6977041
  30.4545020  17.6747883  54.5207041  30.8816063  16.7017332  54.7632831
  29.2345020  17.4847883  53.5977041  29.2456939  16.4769532  53.1826831
  28.3186892  17.6311907  54.1703764  29.9175020  18.3227883  55.6447041
  30.3365020  17.8297883  57.1887041  31.8175020  17.8907883  57.1837041
  29.5825020  16.5427883  57.3257041  29.7395020  18.9017883  58.1877041
  30.2075020  20.2367883  58.2657041  30.6696742  20.4917734  57.3120378
  30.9565386  20.3143062  59.0537624  29.1025020  21.2577883  58.5807041
  29.5515395  22.2257147  58.8033765  28.1825020  21.5257883  57.4987041
  26.9115020  21.0647883  57.7197041  26.3554172  21.9996456  57.6496270
  26.5715020  20.3937883  56.4957041  26.7235020  19.0427883  56.1247041
  27.2105455  18.3471234  56.7919677  26.1775020  18.7497883  54.9777041
  25.4675020  19.9407883  54.6867041  24.5365020  20.3637883  53.7107041
  24.2515020  19.5237883  52.7207041  23.5908771  19.7919256  52.0053172
  24.6955769  18.6174003  52.6838645  23.9505020  21.5417883  53.7447041
  24.3825020  22.4217883  54.6177041  24.1249560  23.4692163  54.5632640
  25.1905020  22.1757883  55.6897041  25.7455020  20.9317883  55.5867041
  28.1895020  20.7397883  59.6927041  28.6525360  19.9165936  60.2368079
  26.9425020  20.2537883  59.0177041  26.7498957  19.2212372  59.3089777
  26.1002969  20.8780745  59.3161290  27.9775020  21.7737883  60.6067041
  27.2635020  21.5177883  62.0037041  27.6815020  22.5087883  62.9907041
  27.4015020  20.0667883  62.3687041  25.7225020  21.7157883  61.7567041
  25.2895020  23.0467883  61.4407041  25.9464150  23.3838275  60.6388502
  25.3662018  23.6747297  62.3283456  23.8345020  23.0947883  60.9547041
  23.5041276  24.1162679  60.7662062  23.8975020  22.5057883  59.6837041
  22.7685020  21.6897883  59.5797041  22.1256805  22.4396348  59.1186076
  23.0075020  20.6687883  58.4487041  23.6445020  19.4367883  58.5557041
  24.2209643  19.1617762  59.4266011  23.4515020  18.6887883  57.4847041
  22.5645020  19.4967883  56.6447041  21.8905020  19.1147883  55.4397041
  22.0625020  18.0797883  54.7527041  20.9075020  20.0427883  55.1227041
  20.3577297  19.9426053  54.2934199  20.7715020  21.1927883  55.8257041
  19.8785020  22.0017883  55.3417041  19.3117880  21.8590478  54.5179562
  19.7500836  22.8764140  55.8302115  21.4985020  21.6647883  56.8247041
  22.3645020  20.7257883  57.2617041  22.8225020  22.3557883  61.8327041
  23.0844970  22.0888332  62.8565168  22.6415020  21.0557883  60.9857041
  23.1055776  20.2164836  61.5036816  21.5787950  20.8553004  60.8494740
  21.6885020  23.2177883  61.9287041  20.9640392  22.8769295  62.4583906
  36.5585020  33.9757883  44.8677041  35.8585020  32.7867883  45.4967041
  34.7555020  32.3667883  44.6837041  33.5435020  32.9037883  44.9847041
  33.2615020  34.0977883  44.8957041  32.4805020  31.8497883  45.2967041
  32.0545020  32.2007883  46.7187041  30.9725020  32.9557883  46.9937041
  30.0805020  33.4097883  46.0397041  30.6515020  33.3467883  48.3657041
  29.5735020  34.1747883  48.6997041  29.3235020  34.5157883  50.0337041
  30.1485020  34.0317883  51.0477041  31.2245020  33.2077883  50.7297041
  31.4585020  32.8787883  49.3947041  32.5475020  32.0357883  49.1277041
  32.8685020  31.6467883  47.8347041  33.7865020  30.8557883  47.6387041
  31.4085020  31.5857883  44.2557041  31.3675020  32.0707883  43.0007041
  32.4005020  32.8467883  42.5267041  30.3665020  31.8227883  42.0807041
  29.2895020  31.0717883  42.4637041  28.2445020  30.9307883  41.5507041
  27.1285020  30.1597883  41.8857041  27.0625020  29.5277883  43.1297041
  28.1105020  29.6687883  44.0397041  29.2215020  30.4467883  43.6997041
  30.3465020  30.6077883  44.6247041  30.4095020  29.9397883  45.6507041
  36.9455020  34.6337883  45.6597041  37.3925020  33.6217883  44.2437041
  35.8445020  34.5337883  44.2437041  36.5725020  31.9557883  45.5947041
  35.4795020  33.0797883  46.4867041  32.8795020  30.8267883  45.2387041
  29.1825020  33.4807883  46.4137041  28.9165020  34.5607883  47.9067041
  28.4735020  35.1677883  50.2827041  29.9495020  34.2997883  52.0957041
  31.8825020  32.8207883  51.5217041  33.2095020  32.3807883  42.8047041
  28.2985020  31.4257883  40.5697041  26.3015020  30.0507883  41.1687041
  26.1845020  28.9187883  43.3917041  28.0635020  29.1707883  45.0197041
  37.6559310  46.1169310  34.2649310  47.0639310  37.7949310  21.8509310
  62.5959310  35.9619310  30.2569310  49.0169310  50.8239310  37.1119310
  49.7129310  30.7909310  27.8599310  31.6189310  40.1469310  29.9009310
  37.6839310  18.5119310  32.5979310  55.2789310  43.9059310  40.2119310
  22.5399310  24.7049310  42.5269310  49.2509310  48.1989310  20.4159310
  39.0439310  15.8859310  47.2189310  34.8599310  51.3179310  36.0019310
  29.8789310  26.8979310  60.4659310  62.6729310  31.0299310  19.1809310
  26.6639310  18.9719310  33.3869310  50.4839310  36.6099310  13.7339310
  56.2109310  29.7679310  40.7339310  26.6389310  12.9269310  54.6529310
  63.5239310  48.2259310  31.5089310  18.9739310  45.4209310  36.9879310
  31.9289310  28.1609310  27.8159310  72.8249310  40.4579310  23.4359310
  35.0869310  57.2919310  56.4899310  13.4319310  31.7139310  48.9009310
  37.6519310  41.4779310  23.4399310  23.7099310  56.0319310  40.5789310
  27.7199310  12.3309310  38.3979310  50.9219310  55.1739310  10.6969310
  33.0359310  18.5889310  64.1199310  48.2729310  52.1129310  31.8589310
  56.4399310  25.6589310  31.7769310  11.0759310  22.9929310  45.4249310
  56.7479310  42.0729310  10.7579310  38.7069310  19.3669310  53.9359310
  18.6189310  51.5669310  55.9469310  19.9199310  27.1339310  58.4419310
  43.0029310  27.2609310  21.0159310  62.8059310  64.3289310  26.9949310
  64.0109310  63.2689310  30.8439310  62.7779310  64.8179310  37.1809310
  59.7829310  63.2149310  39.9069310  58.3419310  63.4769310  44.6879310
  59.8729310  62.0709310  46.4889310  53.5979310  61.9869310  57.0629310
  51.9629310  63.4629310  61.8199310  49.7229310  63.4509310  64.0359310
  53.5059310  65.6959310  53.5829310  56.7479310  60.9399310  48.4779310
  53.5289310  57.9099310  53.8759310  51.1332114  68.3882114  51.7542114
  55.9109310  62.2409310  44.6959310  55.2789310  62.7729310  40.2119310
  49.1332114  70.3882114  48.7542114  54.4599310  54.5319310  50.9639310
  56.1179310  56.8609310  46.5989310  58.6569310  57.2419310  44.6849310
  60.7849310  65.8039310  25.4709310  57.5689310  65.3929310  23.7289310
  54.7849310  65.6419310  26.9179310  56.3099310  65.9319310  29.6139310
  56.5159310  64.9839310  34.2649310  45.1332114  70.3882114  48.7542114
  41.1332114  70.3882114  48.7542114  32.1332114  74.3882114  55.7542114
  30.1332114  72.3882114  60.7542114  40.1332114  70.3882114  52.7542114
  37.1332114  74.3882114  53.7542114  34.1332114  72.3882114  60.7542114
  38.1332114  70.3882114  61.7542114  39.5009310  67.4479310  57.8389310
  40.1332114  71.3882114  56.7542114  41.1332114  73.3882114  60.7542114
  37.1332114  70.3882114  49.7542114  38.1332114  70.3882114  45.7542114
  34.1332114  69.3882114  43.7542114  33.1332114  71.3882114  52.7542114
  32.1332114  70.3882114  56.7542114  36.1332114  71.3882114  56.7542114
  44.1332114  69.3882114  52.7542114  28.1332114  69.3882114  58.7542114
  29.1332114  72.3882114  53.7542114  30.1332114  69.3882114  43.7542114
  26.1332114  69.3882114  43.7542114  22.1332114  70.3882114  45.7542114
  18.1332114  70.3882114  45.7542114  23.1332114  70.3882114  40.7542114
  21.1332114  73.3882114  42.7542114  17.1332114  72.3882114  41.7542114
  18.4909310  67.5019310  40.7339310  14.5059310  66.1319310  44.4949310
   9.7299310  66.2169310  42.9979310   4.2049310  65.8039310  44.3309310
   3.2929310  62.0709310  46.4889310   1.7759310  59.7689310  46.1669310
  47.2319310  64.5479310  64.8219310  44.1332114  72.3882114  55.7542114
  45.1332114  71.3882114  59.7542114  47.4499310  66.2169310  61.8579310
   0.1332114  56.3882114  44.7542114   0.1332114  52.3882114  44.7542114
  -2.8667886  43.3882114  49.7542114  -2.8667886  46.3882114  46.7542114
  -0.8667886  48.3882114  43.7542114  -2.8667886  41.3882114  53.7542114
  -0.8667886  38.3882114  55.7542114  -0.8667886  34.3882114  54.7542114
  -3.8667886  39.3882114  46.7542114  -1.8667886  37.3882114  49.7542114
  -0.8667886  30.3882114  53.7542114  -1.8667886  41.3882114  43.7542114
  -3.8667886  34.3882114  47.7542114  -4.8667886  29.3882114  49.7542114
  -0.8667886  30.3882114  48.7542114  -0.8667886  32.3882114  44.7542114
  -1.8667886  35.3882114  41.7542114  75.4039310  56.2459310  70.3179310
  75.6319310  56.2179310  71.2469310  74.7749310  55.5339310  70.2049310
  75.3529310  56.1509310  70.4229310  73.3199310  54.5319310  69.8239310
  72.7599310  54.9799310  70.4579310  73.1739310  53.6009310  69.9909310
  73.2299310  54.4699310  69.9259310  74.1389310  62.7729310  59.0719310
  73.9849310  63.2299310  59.8989310  74.8509310  62.1629310  59.2639310
  74.2099310  62.7529310  59.2019310  77.5339310  57.9819310  69.6769310
  76.9309310  57.3409310  70.0519310  78.3229310  57.9129310  70.2149310
  77.5579310  57.8919310  69.7939310  77.6119310  56.8549310  58.4329310
  77.3459310  56.3919310  59.2279310  77.6279310  56.1779310  57.7569310
  77.5799310  56.7089310  58.4489310  77.8469310  64.0429310  71.7169310
  77.7189310  63.1779310  72.1059310  78.2899310  63.8679310  70.8859310
  77.8869310  63.9099310  71.6599310  68.9709310  58.3729310  70.2739310
  69.2479310  58.9419310  70.9919310  68.3689310  57.7499310  70.6809310
  68.9299310  58.3659310  70.4179310  69.8439310  64.7099310  72.8669310
  68.9229310  64.4899310  72.7269310  69.9239310  64.8169310  73.8139310
  69.7359310  64.6949310  72.9699310  73.5459310  58.9789310  63.8439310
  73.1389310  58.9779310  62.9769310  73.0599310  59.6419310  64.3349310
  73.4319310  59.0639310  63.7959310  71.6649310  55.3749310  71.8619310
  71.8719310  56.2729310  72.1189310  71.3089310  54.9739310  72.6549310
  71.6459310  55.4379310  71.9959310  72.9729310  56.1659310  62.5619310
  72.2149310  56.1529310  63.1469310  73.5049310  55.4219310  62.8429310
  72.9439310  56.0689310  62.6729310  77.6329310  60.3649310  62.3929310
  76.8079310  60.3469310  61.9079310  77.3819310  60.1789310  63.2979310
  77.4949310  60.3389310  62.4469310  72.4579310  61.9869310  57.0629310
  71.8549310  62.7239310  56.9669310  73.0869310  62.2769310  57.7239310
  72.4609310  62.1179310  57.1349310  75.6079310  60.9399310  67.3379310
  76.4889310  61.2319310  67.5699310  75.6939310  60.6059310  66.4449310
  75.7319310  60.9349310  67.2529310  74.6129310  55.2579310  57.3729310
  74.9549310  55.2669310  58.2669310  74.1279310  56.0799310  57.2949310
  74.5949310  55.3649310  57.4769310  69.7819310  55.1739310  67.2769310
  70.6159310  55.6279310  67.1529310  69.1939310  55.5729310  66.6369310
  69.8139310  55.2829310  67.1799310  77.2159310  59.7689310  65.0269310
  77.3019310  58.9849310  65.5699310  77.6559310  60.4559310  65.5269310
  77.2829310  59.7569310  65.1599310  76.1869310  60.7579310  70.6229310
  75.3419310  60.4379310  70.9399310  76.6599310  59.9669310  70.3639310
  76.1389310  60.6159310  70.6309310  75.3759310  64.9839310  71.9849310
  76.2559310  64.6109310  71.9329310  74.8379310  64.4029310  71.4479310
  75.4199310  64.8619310  71.9099310  72.6589310  62.8189310  69.2599310
  72.2819310  62.6919310  70.1299310  72.0959310  62.3079310  68.6779310
  72.5389310  62.7379310  69.2969310  69.6489310  65.8949310  65.5359310
  70.0429310  65.8249310  64.6659310  70.2609310  65.4399310  66.1129310
  69.7779310  65.8279310  65.4979310  79.1199310  62.4389310  61.3869310
  78.4479310  61.7579310  61.4169310  79.1989310  62.6559310  60.4579310
  79.0439310  62.3799310  61.2719310  73.7849310  59.7399310  69.3019310
  73.1949310  59.0009310  69.1499310  74.3969310  59.7119310  68.5669310
  73.7879310  59.6419310  69.1879310  75.1699310  65.9319310  67.3339310
  75.1299310  64.9769310  67.2969310  74.7149310  66.1599310  68.1439310
  75.1069310  65.8389310  67.4329310  68.7529310  61.6869310  61.1529310
  69.4179310  62.2869310  61.4909310  67.9209310  62.1209310  61.3419310
  68.7319310  61.8189310  61.2209310  71.0859310  66.1319310  63.3549310
  71.7649310  65.8519310  63.9689310  71.1839310  67.0819310  63.3059310
  71.1849310  66.2179310  63.4279310  76.4999310  64.8679310  58.4419310
  76.1169310  64.5589310  57.6209310  76.7389310  65.7789310  58.2669310
  76.4819310  64.9449310  58.3149310  70.7559310  56.3229310  64.1199310
  70.5179310  55.5039310  63.6859310  69.9949310  56.8909310  63.9929310
  70.6279310  56.2909310  64.0479310  75.3269310  55.1379310  60.1239310
  75.5719310  54.2629310  60.4249310  75.1119310  55.6149310  60.9249310
  75.3309310  55.0869310  60.2649310  72.1649310  59.4029310  58.1579310
  71.2399310  59.1599310  58.1959310  72.1609310  60.3229310  57.8929310
  72.0469310  59.4899310  58.1289310  74.1339310  63.7559310  61.4469310
  74.9569310  64.2419310  61.4089310  74.1849310  63.2609310  62.2639310
  74.2459310  63.7549310  61.5459310  76.4289310  65.3929310  61.4489310
  75.9059310  66.0959310  61.8349310  76.4409310  65.5889310  60.5129310
  76.3639310  65.5079310  61.3789310  72.3659310  65.6959310  72.4429310
  72.3279310  66.0129310  71.5409310  71.4939310  65.3369310  72.6079310
  72.2489310  65.6899310  72.3489310  75.2999310  63.3929310  69.4969310
  75.6249310  62.5899310  69.9039310  74.4309310  63.1609310  69.1709310
  75.2299310  63.2609310  69.5069310  76.0369310  60.2209310  58.4669310
  75.5559310  59.4039310  58.3359310  76.4709310  60.3799310  57.6289310
  76.0309310  60.1369310  58.3429310  70.0009310  65.2579310  58.9249310
  70.7679310  64.9349310  59.3999310  69.2589310  65.0189310  59.4799310
  70.0039310  65.1859310  59.0569310  69.3389310  59.0139310  67.6209310
  70.1369310  58.6639310  67.2259310  69.3189310  58.6339310  68.4989310
  69.4379310  58.9199310  67.6829310  71.4239310  63.8009310  66.3339310
  72.3809310  63.7849310  66.3149310  71.1789310  62.9869310  66.7739310
  71.5149310  63.6949310  66.3879310  72.8249310  59.3249310  61.1559310
  72.7349310  59.0539310  60.2429310  71.9269310  59.4819310  61.4489310
  72.6979310  59.3109310  61.0769310  74.7709310  62.2409310  63.5559310
  74.9589310  61.4889310  62.9939310  75.6269310  62.6319310  63.7259310
  74.9039310  62.1949310  63.5059310  76.4269310  57.1009310  72.7959310
  77.3489310  57.1769310  73.0399310  75.9749310  57.7179310  73.3709310
  76.4869310  57.1889310  72.8999310  73.4179310  54.1109310  65.7149310
  73.5889310  55.0319310  65.9139310  73.9839310  53.6269310  66.3159310
  73.5119310  54.1669310  65.8169310  77.2209310  67.4479310  57.8389310
  78.0649310  67.4099310  58.2899310  77.4439310  67.6529310  56.9309310
  77.3579310  67.4689310  57.7809310  74.2719310  63.2379310  66.1079310
  74.5289310  62.8199310  65.2859310  74.3559310  62.5459310  66.7639310
  74.3159310  63.0959310  66.0869310  78.2749310  60.5959310  67.8829310
  77.8259310  59.8419310  68.2649310  78.9969310  60.2159310  67.3829310
  78.3099310  60.4509310  67.8679310  75.2979310  57.3329310  61.8659310
  75.1499310  58.2759310  61.7879310  74.5059310  57.0009310  62.2899310
  75.1779310  57.4109310  61.9099310  74.5539310  57.8219310  58.4609310
  73.6369310  57.6069310  58.6269310  75.0289310  57.4339310  59.1959310
  74.4969310  57.7449310  58.5759310  71.1959310  62.5679310  71.7319310
  70.5169310  63.2069310  71.9519310  70.7869310  61.7189310  71.8949310
  71.0559310  62.5409310  71.7809310  69.3439310  55.4769310  70.3139310
  70.2059310  55.4379310  70.7279310  69.5299310  55.6269310  69.3869310
  69.4779310  55.4909310  70.2479310  70.1589310  59.5489310  62.3439310
  70.5589310  60.1339310  62.9879310  69.6949310  60.1339310  61.7449310
  70.1509310  59.6989310  62.3499310  72.1189310  54.2279310  58.3889310
  72.1199310  54.9699310  58.9929310  72.6229310  54.5319310  57.6349310
  72.1839310  54.3619310  58.3699310  73.0349310  66.2639310  58.6729310
  73.1209310  66.2129310  57.7209310  72.4819310  67.0319310  58.8219310
  72.9749310  66.3559310  58.5699310  70.5489310  61.4849310  67.5319310
  69.7699310  61.9909310  67.7629310  70.2869310  60.5719310  67.6549310
  70.4159310  61.4329310  67.5769310  73.6449310  65.6419310  64.6379310
  73.5579310  66.4219310  65.1869310  73.7169310  64.9179310  65.2609310
  73.6429310  65.6489310  64.7879310  69.2759310  56.7259310  59.8429310
  69.2189310  56.4719310  58.9219310  68.7279310  57.5079310  59.9109310
  69.1989310  56.7939310  59.7339310  73.7469310  60.7829310  71.8219310
  73.6559310  60.6629310  70.8769310  73.0229310  61.3609310  72.0599310
  73.6429310  60.8419310  71.7309310  74.8289310  54.2989310  63.2739310
  74.4239310  53.9679310  64.0759310  74.9359310  53.5249310  62.7219310
  74.7909310  54.1579310  63.3059310  75.3719310  60.3449310  61.1599310
  75.7449310  60.2799310  60.2809310  74.4669310  60.0489310  61.0589310
  75.3039310  60.2979310  61.0349310  75.0709310  67.5019310  59.5939310
  74.3389310  67.0129310  59.2179310  75.7309310  67.5149310  58.9019310
  75.0609310  67.4409310  59.4579310  77.5169310  57.2419310  63.5449310
  76.6649310  57.1039310  63.1329310  77.5669310  58.1889310  63.6809310
  77.4149310  57.3459310  63.5099310  72.3889310  57.9099310  72.7359310
  73.1799310  57.9429310  72.1989310  72.0289310  58.7959310  72.6879310
  72.4439310  58.0269310  72.6609310  78.5619310  60.9129310  56.7839310
  78.5429310  61.5629310  57.4859310  78.9169310  60.1249310  57.1959310
  78.6049310  60.8959310  56.9259310  78.2349310  55.4159310  61.6359310
  78.0099310  56.2009310  62.1349310  79.1339310  55.5679310  61.3439310
  78.3219310  55.5359310  61.6629310  77.4899310  57.5509310  66.9209310
  76.6389310  57.1199310  66.8339310  77.5889310  57.6979310  67.8619310
  77.3929310  57.5149310  67.0299310  71.4649310  57.7059310  66.5349310
  71.3709310  57.2389310  65.7049310  72.2879310  57.3829310  66.8999310
  71.5579310  57.6049310  66.4759310  73.6279310  56.9639310  67.7909310
  74.0799310  56.3849310  68.4049310  74.1909310  56.9789310  67.0179310
  73.7579310  56.8919310  67.7709310  70.2099310  60.0639310  72.0599310
  69.6439310  60.4249310  71.3779310  69.7139310  60.1799310  72.8699310
  70.0739310  60.1249310  72.0759310  72.6269310  65.8219310  69.6349310
  72.1659310  66.1659310  68.8699310  72.7079310  64.8839310  69.4629310
  72.5779310  65.7459310  69.5149310  70.8229310  63.4629310  61.8199310
  71.7789310  63.4949310  61.8469310  70.5519310  64.3799310  61.8579310
  70.9109310  63.5839310  61.8279310  72.1819310  56.7529310  59.7909310
  72.4899310  56.8179310  60.6949310  71.2639310  56.4949310  59.8699310
  72.1039310  56.7279310  59.9169310  68.1109310  67.0659310  58.1359310
  68.7389310  66.5429310  58.6349310  68.6049310  67.3719310  57.3749310
  68.2549310  67.0379310  58.1029310  77.2019310  63.4769310  63.5479310
  77.7159310  62.8769310  63.0079310  76.9279310  64.1669310  62.9439310
  77.2319310  63.4879310  63.4019310  74.9779310  56.8609310  65.4589310
  74.7999310  57.4509310  64.7269310  75.4629310  56.1339310  65.0689310
  75.0169310  56.8439310  65.3159310  68.5829310  63.4509310  64.0359310
  69.1799310  63.7069310  63.3319310  68.8859310  63.9459310  64.7979310
  68.6979310  63.5469310  64.0429310  71.2639310  66.9579310  67.8409310
  71.5229310  67.6509310  67.2329310  70.3919310  67.2169310  68.1399310
  71.1859310  67.0799310  67.8009310  77.8819310  61.4589310  72.7269310
  77.1279310  61.1289310  72.2379310  77.6809310  61.2609310  73.6409310
  77.7599310  61.3909310  72.7809310  75.4039310  56.2459310  51.4579310
  75.6319310  56.2179310  52.3869310  74.7749310  55.5339310  51.3449310
  75.3529310  56.1509310  51.5629310  73.3199310  54.5319310  50.9639310
  72.7599310  54.9799310  51.5979310  73.1739310  53.6009310  51.1309310
  73.2299310  54.4699310  51.0659310  74.1389310  62.7729310  40.2119310
  73.9849310  63.2299310  41.0389310  74.8509310  62.1629310  40.4039310
  74.2099310  62.7529310  40.3419310  77.5339310  57.9819310  50.8169310
  76.9309310  57.3409310  51.1919310  78.3229310  57.9129310  51.3549310
  77.5579310  57.8919310  50.9339310  78.0719310  54.4189310  57.0949310
  78.9639310  54.1899310  56.8309310  77.5499310  54.2979310  56.3019310
  78.1199310  54.3749310  56.9599310  77.6119310  56.8549310  39.5729310
  77.3459310  56.3919310  40.3679310  77.6279310  56.1779310  38.8969310
  77.5799310  56.7089310  39.5889310  77.8469310  64.0429310  52.8569310
  77.7189310  63.1779310  53.2459310  78.2899310  63.8679310  52.0259310
  77.8869310  63.9099310  52.7999310  68.9709310  58.3729310  51.4139310
  69.2479310  58.9419310  52.1319310  68.3689310  57.7499310  51.8209310
  68.9299310  58.3659310  51.5579310  69.8439310  64.7099310  54.0069310
  68.9229310  64.4899310  53.8669310  69.9239310  64.8169310  54.9539310
  69.7359310  64.6949310  54.1099310  73.5459310  58.9789310  44.9839310
  73.1389310  58.9779310  44.1169310  73.0599310  59.6419310  45.4749310
  73.4319310  59.0639310  44.9359310  71.6649310  55.3749310  53.0019310
  71.8719310  56.2729310  53.2589310  71.3089310  54.9739310  53.7949310
  71.6459310  55.4379310  53.1359310  72.9729310  56.1659310  43.7019310
  72.2149310  56.1529310  44.2869310  73.5049310  55.4219310  43.9829310
  72.9439310  56.0689310  43.8129310  77.6329310  60.3649310  43.5329310
  76.8079310  60.3469310  43.0479310  77.3819310  60.1789310  44.4379310
  77.4949310  60.3389310  43.5869310  69.5339310  58.3769310  57.0549310
  69.3359310  58.4579310  56.1229310  68.7399310  58.6799310  57.4959310
  69.4069310  58.4259310  56.9919310  72.4579310  61.9869310  38.2029310
  71.8549310  62.7239310  38.1069310  73.0869310  62.2769310  38.8639310
  72.4609310  62.1179310  38.2749310  75.6079310  60.9399310  48.4779310
  76.4889310  61.2319310  48.7099310  75.6939310  60.6059310  47.5849310
  75.7319310  60.9349310  48.3929310  75.5539310  64.2879310  55.8479310
  75.3969310  63.3439310  55.8119310  75.4649310  64.5799310  54.9409310
  75.5219310  64.2039310  55.7269310  74.6129310  55.2579310  38.5129310
  74.9549310  55.2669310  39.4069310  74.1279310  56.0799310  38.4349310
  74.5949310  55.3649310  38.6169310  69.7819310  55.1739310  48.4169310
  70.6159310  55.6279310  48.2929310  69.1939310  55.5729310  47.7769310
  69.8139310  55.2829310  48.3199310  70.8809310  54.3069310  55.4289310
  70.0479310  53.8799310  55.6299310  70.8479310  55.1339310  55.9089310
  70.7699310  54.3579310  55.5159310  77.2159310  59.7689310  46.1669310
  77.3019310  58.9849310  46.7099310  77.6559310  60.4559310  46.6669310
  77.2829310  59.7569310  46.2999310  76.1869310  60.7579310  51.7629310
  75.3419310  60.4379310  52.0799310  76.6599310  59.9669310  51.5039310
  76.1389310  60.6159310  51.7709310  73.1139310  65.9439310  56.0969310
  73.9249310  65.4559310  55.9549310  72.8449310  66.2209310  55.2209310
  73.1829310  65.9169310  55.9659310  75.3759310  64.9839310  53.1249310
  76.2559310  64.6109310  53.0729310  74.8379310  64.4029310  52.5879310
  75.4199310  64.8619310  53.0499310  72.6589310  62.8189310  50.3999310
  72.2819310  62.6919310  51.2699310  72.0959310  62.3079310  49.8179310
  72.5389310  62.7379310  50.4369310  69.6489310  65.8949310  46.6759310
  70.0429310  65.8249310  45.8059310  70.2609310  65.4399310  47.2529310
  69.7779310  65.8279310  46.6379310  79.1199310  62.4389310  42.5269310
  78.4479310  61.7579310  42.5569310  79.1989310  62.6559310  41.5979310
  79.0439310  62.3799310  42.4119310  72.8069310  57.2919310  56.4899310
  72.6539310  57.5719310  55.5879310  72.5699310  58.0519310  57.0209310
  72.7569310  57.4249310  56.4429310  74.7399310  61.4129310  55.5959310
  74.6249310  61.1289310  54.6889310  73.8489310  61.5159310  55.9289310
  74.6109310  61.3899310  55.5219310  73.7849310  59.7399310  50.4419310
  73.1949310  59.0009310  50.2899310  74.3969310  59.7119310  49.7069310
  73.7879310  59.6419310  50.3279310  75.1699310  65.9319310  48.4739310
  75.1299310  64.9769310  48.4369310  74.7149310  66.1599310  49.2839310
  75.1069310  65.8389310  48.5729310  68.7529310  61.6869310  42.2929310
  69.4179310  62.2869310  42.6309310  67.9209310  62.1209310  42.4819310
  68.7319310  61.8189310  42.3609310  71.0859310  66.1319310  44.4949310
  71.7649310  65.8519310  45.1089310  71.1839310  67.0819310  44.4459310
  71.1849310  66.2179310  44.5679310  76.4999310  64.8679310  39.5819310
  76.1169310  64.5589310  38.7609310  76.7389310  65.7789310  39.4069310
  76.4819310  64.9449310  39.4549310  70.7559310  56.3229310  45.2599310
  70.5179310  55.5039310  44.8259310  69.9949310  56.8909310  45.1329310
  70.6279310  56.2909310  45.1879310  75.3269310  55.1379310  41.2639310
  75.5719310  54.2629310  41.5649310  75.1119310  55.6149310  42.0649310
  75.3309310  55.0869310  41.4049310  72.1649310  59.4029310  39.2979310
  71.2399310  59.1599310  39.3359310  72.1609310  60.3229310  39.0329310
  72.0469310  59.4899310  39.2689310  74.1339310  63.7559310  42.5869310
  74.9569310  64.2419310  42.5489310  74.1849310  63.2609310  43.4039310
  74.2459310  63.7549310  42.6859310  76.4289310  65.3929310  42.5889310
  75.9059310  66.0959310  42.9749310  76.4409310  65.5889310  41.6529310
  76.3639310  65.5079310  42.5189310  72.3659310  65.6959310  53.5829310
  72.3279310  66.0129310  52.6809310  71.4939310  65.3369310  53.7479310
  72.2489310  65.6899310  53.4889310  75.2999310  63.3929310  50.6369310
  75.6249310  62.5899310  51.0439310  74.4309310  63.1609310  50.3109310
  75.2299310  63.2609310  50.6469310  70.9159310  64.3269310  56.6059310
  71.7189310  64.8369310  56.4959310  70.4659310  64.7449310  57.3399310
  70.9609310  64.4459310  56.6859310  76.0369310  60.2209310  39.6069310
  75.5559310  59.4039310  39.4759310  76.4709310  60.3799310  38.7689310
  76.0309310  60.1369310  39.4829310  70.0009310  65.2579310  40.0649310
  70.7679310  64.9349310  40.5399310  69.2589310  65.0189310  40.6199310
  70.0039310  65.1859310  40.1969310  69.3389310  59.0139310  48.7609310
  70.1369310  58.6639310  48.3659310  69.3189310  58.6339310  49.6389310
  69.4379310  58.9199310  48.8229310  71.4239310  63.8009310  47.4739310
  72.3809310  63.7849310  47.4549310  71.1789310  62.9869310  47.9139310
  71.5149310  63.6949310  47.5279310  72.8249310  59.3249310  42.2959310
  72.7349310  59.0539310  41.3829310  71.9269310  59.4819310  42.5889310
  72.6979310  59.3109310  42.2169310  74.7709310  62.2409310  44.6959310
  74.9589310  61.4889310  44.1339310  75.6269310  62.6319310  44.8659310
  74.9039310  62.1949310  44.6459310  76.4269310  57.1009310  53.9359310
  77.3489310  57.1769310  54.1799310  75.9749310  57.7179310  54.5109310
  76.4869310  57.1889310  54.0399310  73.4179310  54.1109310  46.8549310
  73.5889310  55.0319310  47.0539310  73.9839310  53.6269310  47.4559310
  73.5119310  54.1669310  46.9569310  77.2209310  67.4479310  38.9789310
  78.0649310  67.4099310  39.4299310  77.4439310  67.6529310  38.0709310
  77.3579310  67.4689310  38.9209310  74.2719310  63.2379310  47.2479310
  74.5289310  62.8199310  46.4259310  74.3559310  62.5459310  47.9039310
  74.3159310  63.0959310  47.2269310  78.2749310  60.5959310  49.0229310
  77.8259310  59.8419310  49.4049310  78.9969310  60.2159310  48.5229310
  78.3099310  60.4509310  49.0079310  75.2979310  57.3329310  43.0059310
  75.1499310  58.2759310  42.9279310  74.5059310  57.0009310  43.4299310
  75.1779310  57.4109310  43.0499310  74.5539310  57.8219310  39.6009310
  73.6369310  57.6069310  39.7669310  75.0289310  57.4339310  40.3359310
  74.4969310  57.7449310  39.7159310  71.1959310  62.5679310  52.8719310
  70.5169310  63.2069310  53.0919310  70.7869310  61.7189310  53.0349310
  71.0559310  62.5409310  52.9209310  69.3439310  55.4769310  51.4539310
  70.2059310  55.4379310  51.8679310  69.5299310  55.6269310  50.5269310
  69.4779310  55.4909310  51.3879310  68.8029310  60.6479310  55.4409310
  68.2029310  61.3809310  55.5819310  69.3499310  60.6309310  56.2269310
  68.7959310  60.7399310  55.5599310  70.1589310  59.5489310  43.4839310
  70.5589310  60.1339310  44.1279310  69.6949310  60.1339310  42.8849310
  70.1509310  59.6989310  43.4899310  72.1189310  54.2279310  39.5289310
  72.1199310  54.9699310  40.1329310  72.6229310  54.5319310  38.7749310
  72.1839310  54.3619310  39.5099310  73.0349310  66.2639310  39.8129310
  73.1209310  66.2129310  38.8609310  72.4819310  67.0319310  39.9619310
  72.9749310  66.3559310  39.7099310  70.5489310  61.4849310  48.6719310
  69.7699310  61.9909310  48.9029310  70.2869310  60.5719310  48.7949310
  70.4159310  61.4329310  48.7169310  73.6449310  65.6419310  45.7779310
  73.5579310  66.4219310  46.3269310  73.7169310  64.9179310  46.4009310
  73.6429310  65.6489310  45.9279310  69.2759310  56.7259310  40.9829310
  69.2189310  56.4719310  40.0619310  68.7279310  57.5079310  41.0509310
  69.1989310  56.7939310  40.8739310  73.7469310  60.7829310  52.9619310
  73.6559310  60.6629310  52.0169310  73.0229310  61.3609310  53.1999310
  73.6429310  60.8419310  52.8709310  74.8289310  54.2989310  44.4139310
  74.4239310  53.9679310  45.2159310  74.9359310  53.5249310  43.8619310
  74.7909310  54.1579310  44.4459310  75.3719310  60.3449310  42.2999310
  75.7449310  60.2799310  41.4209310  74.4669310  60.0489310  42.1989310
  75.3039310  60.2979310  42.1749310  75.0709310  67.5019310  40.7339310
  74.3389310  67.0129310  40.3579310  75.7309310  67.5149310  40.0419310
  75.0609310  67.4409310  40.5979310  77.5169310  57.2419310  44.6849310
  76.6649310  57.1039310  44.2729310  77.5669310  58.1889310  44.8209310
  77.4149310  57.3459310  44.6499310  72.3889310  57.9099310  53.8759310
  73.1799310  57.9429310  53.3389310  72.0289310  58.7959310  53.8279310
  72.4439310  58.0269310  53.8009310  78.5619310  60.9129310  37.9239310
  78.5429310  61.5629310  38.6259310  78.9169310  60.1249310  38.3359310
  78.6049310  60.8959310  38.0659310  78.2349310  55.4159310  42.7759310
  78.0099310  56.2009310  43.2749310  79.1339310  55.5679310  42.4839310
  78.3219310  55.5359310  42.8029310  77.4899310  57.5509310  48.0609310
  76.6389310  57.1199310  47.9739310  77.5889310  57.6979310  49.0019310
  77.3929310  57.5149310  48.1699310  76.1209310  54.5719310  55.2119310
  75.5679310  54.8829310  55.9279310  76.1819310  55.3179310  54.6149310
  76.0579310  54.7069310  55.2269310  71.4649310  57.7059310  47.6749310
  71.3709310  57.2389310  46.8449310  72.2879310  57.3829310  48.0399310
  71.5579310  57.6049310  47.6159310  73.6279310  56.9639310  48.9309310
  74.0799310  56.3849310  49.5449310  74.1909310  56.9789310  48.1579310
  73.7579310  56.8919310  48.9109310  70.2099310  60.0639310  53.1999310
  69.6439310  60.4249310  52.5179310  69.7139310  60.1799310  54.0099310
  70.0739310  60.1249310  53.2159310  72.6269310  65.8219310  50.7749310
  72.1659310  66.1659310  50.0099310  72.7079310  64.8839310  50.6029310
  72.5779310  65.7459310  50.6549310  70.8229310  63.4629310  42.9599310
  71.7789310  63.4949310  42.9869310  70.5519310  64.3799310  42.9979310
  70.9109310  63.5839310  42.9679310  75.6629310  58.9219310  55.9029310
  74.8979310  58.5249310  56.3209310  75.4089310  59.8329310  55.7549310
  75.5319310  58.9879310  55.9379310  72.1819310  56.7529310  40.9309310
  72.4899310  56.8179310  41.8349310  71.2639310  56.4949310  41.0099310
  72.1039310  56.7279310  41.0569310  68.1109310  67.0659310  39.2759310
  68.7389310  66.5429310  39.7749310  68.6049310  67.3719310  38.5149310
  68.2549310  67.0379310  39.2429310  77.2019310  63.4769310  44.6879310
  77.7159310  62.8769310  44.1479310  76.9279310  64.1669310  44.0839310
  77.2319310  63.4879310  44.5419310  74.9779310  56.8609310  46.5989310
  74.7999310  57.4509310  45.8669310  75.4629310  56.1339310  46.2089310
  75.0169310  56.8439310  46.4559310  68.5829310  63.4509310  45.1759310
  69.1799310  63.7069310  44.4719310  68.8859310  63.9459310  45.9379310
  68.6979310  63.5469310  45.1829310  71.2639310  66.9579310  48.9809310
  71.5229310  67.6509310  48.3729310  70.3919310  67.2169310  49.2799310
  71.1859310  67.0799310  48.9409310  77.8819310  61.4589310  53.8669310
  77.1279310  61.1289310  53.3779310  77.6809310  61.2609310  54.7809310
  77.7599310  61.3909310  53.9209310  75.4039310  56.2459310  32.5979310
  75.6319310  56.2179310  33.5269310  74.7749310  55.5339310  32.4849310
  75.3529310  56.1509310  32.7029310  73.3199310  54.5319310  32.1039310
  72.7599310  54.9799310  32.7379310  73.1739310  53.6009310  32.2709310
  73.2299310  54.4699310  32.2059310  74.1389310  62.7729310  21.3519310
  73.9849310  63.2299310  22.1789310  74.8509310  62.1629310  21.5439310
  74.2099310  62.7529310  21.4819310  77.5339310  57.9819310  31.9569310
  76.9309310  57.3409310  32.3319310  78.3229310  57.9129310  32.4949310
  77.5579310  57.8919310  32.0739310  78.0719310  54.4189310  38.2349310
  78.9639310  54.1899310  37.9709310  77.5499310  54.2979310  37.4419310
  78.1199310  54.3749310  38.0999310  77.6119310  56.8549310  20.7129310
  77.3459310  56.3919310  21.5079310  77.6279310  56.1779310  20.0369310
  77.5799310  56.7089310  20.7289310  77.8469310  64.0429310  33.9969310
  77.7189310  63.1779310  34.3859310  78.2899310  63.8679310  33.1659310
  77.8869310  63.9099310  33.9399310  68.9709310  58.3729310  32.5539310
  69.2479310  58.9419310  33.2719310  68.3689310  57.7499310  32.9609310
  68.9299310  58.3659310  32.6979310  69.8439310  64.7099310  35.1469310
  68.9229310  64.4899310  35.0069310  69.9239310  64.8169310  36.0939310
  69.7359310  64.6949310  35.2499310  73.5459310  58.9789310  26.1239310
  73.1389310  58.9779310  25.2569310  73.0599310  59.6419310  26.6149310
  73.4319310  59.0639310  26.0759310  71.6649310  55.3749310  34.1419310
  71.8719310  56.2729310  34.3989310  71.3089310  54.9739310  34.9349310
  71.6459310  55.4379310  34.2759310  72.9729310  56.1659310  24.8419310
  72.2149310  56.1529310  25.4269310  73.5049310  55.4219310  25.1229310
  72.9439310  56.0689310  24.9529310  77.6329310  60.3649310  24.6729310
  76.8079310  60.3469310  24.1879310  77.3819310  60.1789310  25.5779310
  77.4949310  60.3389310  24.7269310  69.5339310  58.3769310  38.1949310
  69.3359310  58.4579310  37.2629310  68.7399310  58.6799310  38.6359310
  69.4069310  58.4259310  38.1319310  72.4579310  61.9869310  19.3429310
  71.8549310  62.7239310  19.2469310  73.0869310  62.2769310  20.0039310
  72.4609310  62.1179310  19.4149310  75.6079310  60.9399310  29.6179310
  76.4889310  61.2319310  29.8499310  75.6939310  60.6059310  28.7249310
  75.7319310  60.9349310  29.5329310  75.5539310  64.2879310  36.9879310
  75.3969310  63.3439310  36.9519310  75.4649310  64.5799310  36.0809310
  75.5219310  64.2039310  36.8669310  74.6129310  55.2579310  19.6529310
  74.9549310  55.2669310  20.5469310  74.1279310  56.0799310  19.5749310
  74.5949310  55.3649310  19.7569310  69.7819310  55.1739310  29.5569310
  70.6159310  55.6279310  29.4329310  69.1939310  55.5729310  28.9169310
  69.8139310  55.2829310  29.4599310  70.8809310  54.3069310  36.5689310
  70.0479310  53.8799310  36.7699310  70.8479310  55.1339310  37.0489310
  70.7699310  54.3579310  36.6559310  77.2159310  59.7689310  27.3069310
  77.3019310  58.9849310  27.8499310  77.6559310  60.4559310  27.8069310
  77.2829310  59.7569310  27.4399310  76.1869310  60.7579310  32.9029310
  75.3419310  60.4379310  33.2199310  76.6599310  59.9669310  32.6439310
  76.1389310  60.6159310  32.9109310  73.1139310  65.9439310  37.2369310
  73.9249310  65.4559310  37.0949310  72.8449310  66.2209310  36.3609310
  73.1829310  65.9169310  37.1059310  75.3759310  64.9839310  34.2649310
  76.2559310  64.6109310  34.2129310  74.8379310  64.4029310  33.7279310
  75.4199310  64.8619310  34.1899310  72.6589310  62.8189310  31.5399310
  72.2819310  62.6919310  32.4099310  72.0959310  62.3079310  30.9579310
  72.5389310  62.7379310  31.5769310  69.6489310  65.8949310  27.8159310
  70.0429310  65.8249310  26.9459310  70.2609310  65.4399310  28.3929310
  69.7779310  65.8279310  27.7779310  79.1199310  62.4389310  23.6669310
  78.4479310  61.7579310  23.6969310  79.1989310  62.6559310  22.7379310
  79.0439310  62.3799310  23.5519310  72.8069310  57.2919310  37.6299310
  72.6539310  57.5719310  36.7279310  72.5699310  58.0519310  38.1609310
  72.7569310  57.4249310  37.5829310  74.7399310  61.4129310  36.7359310
  74.6249310  61.1289310  35.8289310  73.8489310  61.5159310  37.0689310
  74.6109310  61.3899310  36.6619310  73.7849310  59.7399310  31.5819310
  73.1949310  59.0009310  31.4299310  74.3969310  59.7119310  30.8469310
  73.7879310  59.6419310  31.4679310  75.1699310  65.9319310  29.6139310
  75.1299310  64.9769310  29.5769310  74.7149310  66.1599310  30.4239310
  75.1069310  65.8389310  29.7129310  68.7529310  61.6869310  23.4329310
  69.4179310  62.2869310  23.7709310  67.9209310  62.1209310  23.6219310
  68.7319310  61.8189310  23.5009310  71.0859310  66.1319310  25.6349310
  71.7649310  65.8519310  26.2489310  71.1839310  67.0819310  25.5859310
  71.1849310  66.2179310  25.7079310  76.4999310  64.8679310  20.7219310
  76.1169310  64.5589310  19.9009310  76.7389310  65.7789310  20.5469310
  76.4819310  64.9449310  20.5949310  70.7559310  56.3229310  26.3999310
  70.5179310  55.5039310  25.9659310  69.9949310  56.8909310  26.2729310
  70.6279310  56.2909310  26.3279310  75.3269310  55.1379310  22.4039310
  75.5719310  54.2629310  22.7049310  75.1119310  55.6149310  23.2049310
  75.3309310  55.0869310  22.5449310  72.1649310  59.4029310  20.4379310
  71.2399310  59.1599310  20.4759310  72.1609310  60.3229310  20.1729310
  72.0469310  59.4899310  20.4089310  74.1339310  63.7559310  23.7269310
  74.9569310  64.2419310  23.6889310  74.1849310  63.2609310  24.5439310
  74.2459310  63.7549310  23.8259310  76.4289310  65.3929310  23.7289310
  75.9059310  66.0959310  24.1149310  76.4409310  65.5889310  22.7929310
  76.3639310  65.5079310  23.6589310  72.3659310  65.6959310  34.7229310
  72.3279310  66.0129310  33.8209310  71.4939310  65.3369310  34.8879310
  72.2489310  65.6899310  34.6289310  75.2999310  63.3929310  31.7769310
  75.6249310  62.5899310  32.1839310  74.4309310  63.1609310  31.4509310
  75.2299310  63.2609310  31.7869310  70.9159310  64.3269310  37.7459310
  71.7189310  64.8369310  37.6359310  70.4659310  64.7449310  38.4799310
  70.9609310  64.4459310  37.8259310  76.0369310  60.2209310  20.7469310
  75.5559310  59.4039310  20.6159310  76.4709310  60.3799310  19.9089310
  76.0309310  60.1369310  20.6229310  70.0009310  65.2579310  21.2049310
  70.7679310  64.9349310  21.6799310  69.2589310  65.0189310  21.7599310
  70.0039310  65.1859310  21.3369310  69.3389310  59.0139310  29.9009310
  70.1369310  58.6639310  29.5059310  69.3189310  58.6339310  30.7789310
  69.4379310  58.9199310  29.9629310  71.4239310  63.8009310  28.6139310
  72.3809310  63.7849310  28.5949310  71.1789310  62.9869310  29.0539310
  71.5149310  63.6949310  28.6679310  72.8249310  59.3249310  23.4359310
  72.7349310  59.0539310  22.5229310  71.9269310  59.4819310  23.7289310
  72.6979310  59.3109310  23.3569310  74.7709310  62.2409310  25.8359310
  74.9589310  61.4889310  25.2739310  75.6269310  62.6319310  26.0059310
  74.9039310  62.1949310  25.7859310  76.4269310  57.1009310  35.0759310
  77.3489310  57.1769310  35.3199310  75.9749310  57.7179310  35.6509310
  76.4869310  57.1889310  35.1799310  73.4179310  54.1109310  27.9949310
  73.5889310  55.0319310  28.1939310  73.9839310  53.6269310  28.5959310
  73.5119310  54.1669310  28.0969310  77.2209310  67.4479310  20.1189310
  78.0649310  67.4099310  20.5699310  77.4439310  67.6529310  19.2109310
  77.3579310  67.4689310  20.0609310  74.2719310  63.2379310  28.3879310
  74.5289310  62.8199310  27.5659310  74.3559310  62.5459310  29.0439310
  74.3159310  63.0959310  28.3669310  78.2749310  60.5959310  30.1629310
  77.8259310  59.8419310  30.5449310  78.9969310  60.2159310  29.6629310
  78.3099310  60.4509310  30.1479310  75.2979310  57.3329310  24.1459310
  75.1499310  58.2759310  24.0679310  74.5059310  57.0009310  24.5699310
  75.1779310  57.4109310  24.1899310  74.5539310  57.8219310  20.7409310
  73.6369310  57.6069310  20.9069310  75.0289310  57.4339310  21.4759310
  74.4969310  57.7449310  20.8559310  71.1959310  62.5679310  34.0119310
  70.5169310  63.2069310  34.2319310  70.7869310  61.7189310  34.1749310
  71.0559310  62.5409310  34.0609310  69.3439310  55.4769310  32.5939310
  70.2059310  55.4379310  33.0079310  69.5299310  55.6269310  31.6669310
  69.4779310  55.4909310  32.5279310  68.8029310  60.6479310  36.5809310
  68.2029310  61.3809310  36.7219310  69.3499310  60.6309310  37.3669310
  68.7959310  60.7399310  36.6999310  70.1589310  59.5489310  24.6239310
  70.5589310  60.1339310  25.2679310  69.6949310  60.1339310  24.0249310
  70.1509310  59.6989310  24.6299310  72.1189310  54.2279310  20.6689310
  72.1199310  54.9699310  21.2729310  72.6229310  54.5319310  19.9149310
  72.1839310  54.3619310  20.6499310  73.0349310  66.2639310  20.9529310
  73.1209310  66.2129310  20.0009310  72.4819310  67.0319310  21.1019310
  72.9749310  66.3559310  20.8499310  70.5489310  61.4849310  29.8119310
  69.7699310  61.9909310  30.0429310  70.2869310  60.5719310  29.9349310
  70.4159310  61.4329310  29.8569310  73.6449310  65.6419310  26.9179310
  73.5579310  66.4219310  27.4669310  73.7169310  64.9179310  27.5409310
  73.6429310  65.6489310  27.0679310  69.2759310  56.7259310  22.1229310
  69.2189310  56.4719310  21.2019310  68.7279310  57.5079310  22.1909310
  69.1989310  56.7939310  22.0139310  73.7469310  60.7829310  34.1019310
  73.6559310  60.6629310  33.1569310  73.0229310  61.3609310  34.3399310
  73.6429310  60.8419310  34.0109310  74.8289310  54.2989310  25.5539310
  74.4239310  53.9679310  26.3559310  74.9359310  53.5249310  25.0019310
  74.7909310  54.1579310  25.5859310  75.3719310  60.3449310  23.4399310
  75.7449310  60.2799310  22.5609310  74.4669310  60.0489310  23.3389310
  75.3039310  60.2979310  23.3149310  75.0709310  67.5019310  21.8739310
  74.3389310  67.0129310  21.4979310  75.7309310  67.5149310  21.1819310
  75.0609310  67.4409310  21.7379310  77.5169310  57.2419310  25.8249310
  76.6649310  57.1039310  25.4129310  77.5669310  58.1889310  25.9609310
  77.4149310  57.3459310  25.7899310  72.3889310  57.9099310  35.0159310
  73.1799310  57.9429310  34.4789310  72.0289310  58.7959310  34.9679310
  72.4439310  58.0269310  34.9409310  78.5619310  60.9129310  19.0639310
  78.5429310  61.5629310  19.7659310  78.9169310  60.1249310  19.4759310
  78.6049310  60.8959310  19.2059310  78.2349310  55.4159310  23.9159310
  78.0099310  56.2009310  24.4149310  79.1339310  55.5679310  23.6239310
  78.3219310  55.5359310  23.9429310  77.4899310  57.5509310  29.2009310
  76.6389310  57.1199310  29.1139310  77.5889310  57.6979310  30.1419310
  77.3929310  57.5149310  29.3099310  76.1209310  54.5719310  36.3519310
  75.5679310  54.8829310  37.0679310  76.1819310  55.3179310  35.7549310
  76.0579310  54.7069310  36.3669310  71.4649310  57.7059310  28.8149310
  71.3709310  57.2389310  27.9849310  72.2879310  57.3829310  29.1799310
  71.5579310  57.6049310  28.7559310  73.6279310  56.9639310  30.0709310
  74.0799310  56.3849310  30.6849310  74.1909310  56.9789310  29.2979310
  73.7579310  56.8919310  30.0509310  70.2099310  60.0639310  34.3399310
  69.6439310  60.4249310  33.6579310  69.7139310  60.1799310  35.1499310
  70.0739310  60.1249310  34.3559310  72.6269310  65.8219310  31.9149310
  72.1659310  66.1659310  31.1499310  72.7079310  64.8839310  31.7429310
  72.5779310  65.7459310  31.7949310  70.8229310  63.4629310  24.0999310
  71.7789310  63.4949310  24.1269310  70.5519310  64.3799310  24.1379310
  70.9109310  63.5839310  24.1079310  75.6629310  58.9219310  37.0429310
  74.8979310  58.5249310  37.4609310  75.4089310  59.8329310  36.8949310
  75.5319310  58.9879310  37.0779310  72.1819310  56.7529310  22.0709310
  72.4899310  56.8179310  22.9749310  71.2639310  56.4949310  22.1499310
  72.1039310  56.7279310  22.1969310  68.1109310  67.0659310  20.4159310
  68.7389310  66.5429310  20.9149310  68.6049310  67.3719310  19.6549310
  68.2549310  67.0379310  20.3829310  77.2019310  63.4769310  25.8279310
  77.7159310  62.8769310  25.2879310  76.9279310  64.1669310  25.2239310
  77.2319310  63.4879310  25.6819310  74.9779310  56.8609310  27.7389310
  74.7999310  57.4509310  27.0069310  75.4629310  56.1339310  27.3489310
  75.0169310  56.8439310  27.5959310  68.5829310  63.4509310  26.3159310
  69.1799310  63.7069310  25.6119310  68.8859310  63.9459310  27.0779310
  68.6979310  63.5469310  26.3229310  71.2639310  66.9579310  30.1209310
  71.5229310  67.6509310  29.5129310  70.3919310  67.2169310  30.4199310
  71.1859310  67.0799310  30.0809310  77.8819310  61.4589310  35.0069310
  77.1279310  61.1289310  34.5179310  77.6809310  61.2609310  35.9209310
  77.7599310  61.3909310  35.0609310  75.4039310  56.2459310  13.7379310
  75.6319310  56.2179310  14.6669310  74.7749310  55.5339310  13.6249310
  75.3529310  56.1509310  13.8429310  73.3199310  54.5319310  13.2439310
  72.7599310  54.9799310  13.8779310  73.1739310  53.6009310  13.4109310
  73.2299310  54.4699310  13.3459310  74.1389310  62.7729310   2.4919310
  73.9849310  63.2299310   3.3189310  74.8509310  62.1629310   2.6839310
  74.2099310  62.7529310   2.6219310  77.5339310  57.9819310  13.0969310
  76.9309310  57.3409310  13.4719310  78.3229310  57.9129310  13.6349310
  77.5579310  57.8919310  13.2139310  78.0719310  54.4189310  19.3749310
  78.9639310  54.1899310  19.1109310  77.5499310  54.2979310  18.5819310
  78.1199310  54.3749310  19.2399310  77.8469310  64.0429310  15.1369310
  77.7189310  63.1779310  15.5259310  78.2899310  63.8679310  14.3059310
  77.8869310  63.9099310  15.0799310  68.9709310  58.3729310  13.6939310
  69.2479310  58.9419310  14.4119310  68.3689310  57.7499310  14.1009310
  68.9299310  58.3659310  13.8379310  69.8439310  64.7099310  16.2869310
  68.9229310  64.4899310  16.1469310  69.9239310  64.8169310  17.2339310
  69.7359310  64.6949310  16.3899310  73.5459310  58.9789310   7.2639310
  73.1389310  58.9779310   6.3969310  73.0599310  59.6419310   7.7549310
  73.4319310  59.0639310   7.2159310  71.6649310  55.3749310  15.2819310
  71.8719310  56.2729310  15.5389310  71.3089310  54.9739310  16.0749310
  71.6459310  55.4379310  15.4159310  72.9729310  56.1659310   5.9819310
  72.2149310  56.1529310   6.5669310  73.5049310  55.4219310   6.2629310
  72.9439310  56.0689310   6.0929310  77.6329310  60.3649310   5.8129310
  76.8079310  60.3469310   5.3279310  77.3819310  60.1789310   6.7179310
  77.4949310  60.3389310   5.8669310  69.5339310  58.3769310  19.3349310
  69.3359310  58.4579310  18.4029310  68.7399310  58.6799310  19.7759310
  69.4069310  58.4259310  19.2719310  75.6079310  60.9399310  10.7579310
  76.4889310  61.2319310  10.9899310  75.6939310  60.6059310   9.8649310
  75.7319310  60.9349310  10.6729310  75.5539310  64.2879310  18.1279310
  75.3969310  63.3439310  18.0919310  75.4649310  64.5799310  17.2209310
  75.5219310  64.2039310  18.0069310  69.7819310  55.1739310  10.6969310
  70.6159310  55.6279310  10.5729310  69.1939310  55.5729310  10.0569310
  69.8139310  55.2829310  10.5999310  70.8809310  54.3069310  17.7089310
  70.0479310  53.8799310  17.9099310  70.8479310  55.1339310  18.1889310
  70.7699310  54.3579310  17.7959310  77.2159310  59.7689310   8.4469310
  77.3019310  58.9849310   8.9899310  77.6559310  60.4559310   8.9469310
  77.2829310  59.7569310   8.5799310  76.1869310  60.7579310  14.0429310
  75.3419310  60.4379310  14.3599310  76.6599310  59.9669310  13.7839310
  76.1389310  60.6159310  14.0509310  73.1139310  65.9439310  18.3769310
  73.9249310  65.4559310  18.2349310  72.8449310  66.2209310  17.5009310
  73.1829310  65.9169310  18.2459310  75.3759310  64.9839310  15.4049310
  76.2559310  64.6109310  15.3529310  74.8379310  64.4029310  14.8679310
  75.4199310  64.8619310  15.3299310  72.6589310  62.8189310  12.6799310
  72.2819310  62.6919310  13.5499310  72.0959310  62.3079310  12.0979310
  72.5389310  62.7379310  12.7169310  69.6489310  65.8949310   8.9559310
  70.0429310  65.8249310   8.0859310  70.2609310  65.4399310   9.5329310
  69.7779310  65.8279310   8.9179310  79.1199310  62.4389310   4.8069310
  78.4479310  61.7579310   4.8369310  79.1989310  62.6559310   3.8779310
  79.0439310  62.3799310   4.6919310  72.8069310  57.2919310  18.7699310
  72.6539310  57.5719310  17.8679310  72.5699310  58.0519310  19.3009310
  72.7569310  57.4249310  18.7229310  74.7399310  61.4129310  17.8759310
  74.6249310  61.1289310  16.9689310  73.8489310  61.5159310  18.2089310
  74.6109310  61.3899310  17.8019310  73.7849310  59.7399310  12.7219310
  73.1949310  59.0009310  12.5699310  74.3969310  59.7119310  11.9869310
  73.7879310  59.6419310  12.6079310  75.1699310  65.9319310  10.7539310
  75.1299310  64.9769310  10.7169310  74.7149310  66.1599310  11.5639310
  75.1069310  65.8389310  10.8529310  68.7529310  61.6869310   4.5729310
  69.4179310  62.2869310   4.9109310  67.9209310  62.1209310   4.7619310
  68.7319310  61.8189310   4.6409310  71.0859310  66.1319310   6.7749310
  71.7649310  65.8519310   7.3889310  71.1839310  67.0819310   6.7259310
  71.1849310  66.2179310   6.8479310  70.7559310  56.3229310   7.5399310
  70.5179310  55.5039310   7.1059310  69.9949310  56.8909310   7.4129310
  70.6279310  56.2909310   7.4679310  75.3269310  55.1379310   3.5439310
  75.5719310  54.2629310   3.8449310  75.1119310  55.6149310   4.3449310
  75.3309310  55.0869310   3.6849310  74.1339310  63.7559310   4.8669310
  74.9569310  64.2419310   4.8289310  74.1849310  63.2609310   5.6839310
  74.2459310  63.7549310   4.9659310  76.4289310  65.3929310   4.8689310
  75.9059310  66.0959310   5.2549310  76.4409310  65.5889310   3.9329310
  76.3639310  65.5079310   4.7989310  72.3659310  65.6959310  15.8629310
  72.3279310  66.0129310  14.9609310  71.4939310  65.3369310  16.0279310
  72.2489310  65.6899310  15.7689310  75.2999310  63.3929310  12.9169310
  75.6249310  62.5899310  13.3239310  74.4309310  63.1609310  12.5909310
  75.2299310  63.2609310  12.9269310  70.9159310  64.3269310  18.8859310
  71.7189310  64.8369310  18.7759310  70.4659310  64.7449310  19.6199310
  70.9609310  64.4459310  18.9659310  70.0009310  65.2579310   2.3449310
  70.7679310  64.9349310   2.8199310  69.2589310  65.0189310   2.8999310
  70.0039310  65.1859310   2.4769310  69.3389310  59.0139310  11.0409310
  70.1369310  58.6639310  10.6459310  69.3189310  58.6339310  11.9189310
  69.4379310  58.9199310  11.1029310  71.4239310  63.8009310   9.7539310
  72.3809310  63.7849310   9.7349310  71.1789310  62.9869310  10.1939310
  71.5149310  63.6949310   9.8079310  72.8249310  59.3249310   4.5759310
  72.7349310  59.0539310   3.6629310  71.9269310  59.4819310   4.8689310
  72.6979310  59.3109310   4.4969310  74.7709310  62.2409310   6.9759310
  74.9589310  61.4889310   6.4139310  75.6269310  62.6319310   7.1459310
  74.9039310  62.1949310   6.9259310  76.4269310  57.1009310  16.2159310
  77.3489310  57.1769310  16.4599310  75.9749310  57.7179310  16.7909310
  76.4869310  57.1889310  16.3199310  73.4179310  54.1109310   9.1349310
  73.5889310  55.0319310   9.3339310  73.9839310  53.6269310   9.7359310
  73.5119310  54.1669310   9.2369310  74.2719310  63.2379310   9.5279310
  74.5289310  62.8199310   8.7059310  74.3559310  62.5459310  10.1839310
  74.3159310  63.0959310   9.5069310  78.2749310  60.5959310  11.3029310
  77.8259310  59.8419310  11.6849310  78.9969310  60.2159310  10.8029310
  78.3099310  60.4509310  11.2879310  75.2979310  57.3329310   5.2859310
  75.1499310  58.2759310   5.2079310  74.5059310  57.0009310   5.7099310
  75.1779310  57.4109310   5.3299310  74.5539310  57.8219310   1.8809310
  73.6369310  57.6069310   2.0469310  75.0289310  57.4339310   2.6159310
  74.4969310  57.7449310   1.9959310  71.1959310  62.5679310  15.1519310
  70.5169310  63.2069310  15.3719310  70.7869310  61.7189310  15.3149310
  71.0559310  62.5409310  15.2009310  69.3439310  55.4769310  13.7339310
  70.2059310  55.4379310  14.1479310  69.5299310  55.6269310  12.8069310
  69.4779310  55.4909310  13.6679310  68.8029310  60.6479310  17.7209310
  68.2029310  61.3809310  17.8619310  69.3499310  60.6309310  18.5069310
  68.7959310  60.7399310  17.8399310  70.1589310  59.5489310   5.7639310
  70.5589310  60.1339310   6.4079310  69.6949310  60.1339310   5.1649310
  70.1509310  59.6989310   5.7699310  70.5489310  61.4849310  10.9519310
  69.7699310  61.9909310  11.1829310  70.2869310  60.5719310  11.0749310
  70.4159310  61.4329310  10.9969310  73.6449310  65.6419310   8.0579310
  73.5579310  66.4219310   8.6069310  73.7169310  64.9179310   8.6809310
  73.6429310  65.6489310   8.2079310  69.2759310  56.7259310   3.2629310
  69.2189310  56.4719310   2.3419310  68.7279310  57.5079310   3.3309310
  69.1989310  56.7939310   3.1539310  73.7469310  60.7829310  15.2419310
  73.6559310  60.6629310  14.2969310  73.0229310  61.3609310  15.4799310
  73.6429310  60.8419310  15.1509310  74.8289310  54.2989310   6.6939310
  74.4239310  53.9679310   7.4959310  74.9359310  53.5249310   6.1419310
  74.7909310  54.1579310   6.7259310  75.3719310  60.3449310   4.5799310
  75.7449310  60.2799310   3.7009310  74.4669310  60.0489310   4.4789310
  75.3039310  60.2979310   4.4549310  75.0709310  67.5019310   3.0139310
  74.3389310  67.0129310   2.6379310  75.7309310  67.5149310   2.3219310
  75.0609310  67.4409310   2.8779310  77.5169310  57.2419310   6.9649310
  76.6649310  57.1039310   6.5529310  77.5669310  58.1889310   7.1009310
  77.4149310  57.3459310   6.9299310  72.3889310  57.9099310  16.1559310
  73.1799310  57.9429310  15.6189310  72.0289310  58.7959310  16.1079310
  72.4439310  58.0269310  16.0809310  78.2349310  55.4159310   5.0559310
  78.0099310  56.2009310   5.5549310  79.1339310  55.5679310   4.7639310
  78.3219310  55.5359310   5.0829310  77.4899310  57.5509310  10.3409310
  76.6389310  57.1199310  10.2539310  77.5889310  57.6979310  11.2819310
  77.3929310  57.5149310  10.4499310  76.1209310  54.5719310  17.4919310
  75.5679310  54.8829310  18.2079310  76.1819310  55.3179310  16.8949310
  76.0579310  54.7069310  17.5069310  71.4649310  57.7059310   9.9549310
  71.3709310  57.2389310   9.1249310  72.2879310  57.3829310  10.3199310
  71.5579310  57.6049310   9.8959310  73.6279310  56.9639310  11.2109310
  74.0799310  56.3849310  11.8249310  74.1909310  56.9789310  10.4379310
  73.7579310  56.8919310  11.1909310  70.2099310  60.0639310  15.4799310
  69.6439310  60.4249310  14.7979310  69.7139310  60.1799310  16.2899310
  70.0739310  60.1249310  15.4959310  72.6269310  65.8219310  13.0549310
  72.1659310  66.1659310  12.2899310  72.7079310  64.8839310  12.8829310
  72.5779310  65.7459310  12.9349310  70.8229310  63.4629310   5.2399310
  71.7789310  63.4949310   5.2669310  70.5519310  64.3799310   5.2779310
  70.9109310  63.5839310   5.2479310  75.6629310  58.9219310  18.1829310
  74.8979310  58.5249310  18.6009310  75.4089310  59.8329310  18.0349310
  75.5319310  58.9879310  18.2179310  72.1819310  56.7529310   3.2109310
  72.4899310  56.8179310   4.1149310  71.2639310  56.4949310   3.2899310
  72.1039310  56.7279310   3.3369310  77.2019310  63.4769310   6.9679310
  77.7159310  62.8769310   6.4279310  76.9279310  64.1669310   6.3639310
  77.2319310  63.4879310   6.8219310  74.9779310  56.8609310   8.8789310
  74.7999310  57.4509310   8.1469310  75.4629310  56.1339310   8.4889310
  75.0169310  56.8439310   8.7359310  68.5829310  63.4509310   7.4559310
  69.1799310  63.7069310   6.7519310  68.8859310  63.9459310   8.2179310
  68.6979310  63.5469310   7.4629310  71.2639310  66.9579310  11.2609310
  71.5229310  67.6509310  10.6529310  70.3919310  67.2169310  11.5599310
  71.1859310  67.0799310  11.2209310  77.8819310  61.4589310  16.1469310
  77.1279310  61.1289310  15.6579310  77.6809310  61.2609310  17.0609310
  77.7599310  61.3909310  16.2009310  75.4039310  37.3789310  70.3179310
  75.6319310  37.3509310  71.2469310  74.7749310  36.6669310  70.2049310
  75.3529310  37.2839310  70.4229310  72.8029310  51.5649310  70.5779310
  71.8489310  51.4969310  70.5459310  72.9919310  51.8719310  71.4639310
  72.7049310  51.5959310  70.6869310  77.5679310  49.0089310  63.7409310
  77.3939310  49.1699310  64.6689310  76.8029310  48.5229310  63.4349310
  77.4479310  48.9669310  63.8209310  73.3199310  35.6649310  69.8239310
  72.7599310  36.1129310  70.4579310  73.1739310  34.7339310  69.9909310
  73.2299310  35.6029310  69.9259310  74.1389310  43.9059310  59.0719310
  73.9849310  44.3629310  59.8989310  74.8509310  43.2959310  59.2639310
  74.2099310  43.8859310  59.2019310  77.5339310  39.1149310  69.6769310
  76.9309310  38.4739310  70.0519310  78.3229310  39.0459310  70.2149310
  77.5579310  39.0249310  69.7939310  71.0259310  50.1619310  64.0349310
  71.0639310  51.0549310  63.6909310  70.2269310  50.1409310  64.5609310
  70.9289310  50.2739310  64.0579310  75.7369310  51.9519310  60.7239310
  74.9379310  51.4249310  60.7339310  76.0809310  51.8489310  59.8369310
  75.6789310  51.8709310  60.6119310  77.6119310  37.9879310  58.4329310
  77.3459310  37.5249310  59.2279310  77.6279310  37.3109310  57.7569310
  77.5799310  37.8419310  58.4489310  77.8469310  45.1759310  71.7169310
  77.7189310  44.3109310  72.1059310  78.2899310  45.0009310  70.8859310
  77.8869310  45.0429310  71.6599310  68.9709310  39.5059310  70.2739310
  69.2479310  40.0749310  70.9919310  68.3689310  38.8829310  70.6809310
  68.9299310  39.4989310  70.4179310  69.8439310  45.8429310  72.8669310
  68.9229310  45.6229310  72.7269310  69.9239310  45.9499310  73.8139310
  69.7359310  45.8279310  72.9699310  73.5459310  40.1119310  63.8439310
  73.1389310  40.1109310  62.9769310  73.0599310  40.7749310  64.3349310
  73.4319310  40.1969310  63.7959310  71.6649310  36.5079310  71.8619310
  71.8719310  37.4059310  72.1189310  71.3089310  36.1069310  72.6549310
  71.6459310  36.5709310  71.9959310  72.9729310  37.2989310  62.5619310
  72.2149310  37.2859310  63.1469310  73.5049310  36.5549310  62.8429310
  72.9439310  37.2019310  62.6729310  77.6329310  41.4979310  62.3929310
  76.8079310  41.4799310  61.9079310  77.3819310  41.3119310  63.2979310
  77.4949310  41.4719310  62.4469310  74.7469310  51.1629310  67.0099310
  74.4859310  50.7879310  67.8509310  75.4779310  50.6179310  66.7209310
  74.8069310  51.0449310  67.0799310  72.9849310  49.3559310  65.7249310
  72.2609310  49.6589310  65.1769310  73.5789310  50.1059310  65.7729310
  72.9689310  49.4909310  65.6609310  72.4579310  43.1199310  57.0629310
  71.8549310  43.8569310  56.9669310  73.0869310  43.4099310  57.7239310
  72.4609310  43.2509310  57.1349310  76.8849310  51.5819310  58.3559310
  77.3439310  50.7599310  58.5279310  77.5829310  52.2219310  58.2169310
  77.0329310  51.5589310  58.3599310  75.6079310  42.0729310  67.3379310
  76.4889310  42.3649310  67.5699310  75.6939310  41.7389310  66.4449310
  75.7319310  42.0679310  67.2529310  72.5799310  51.3179310  73.7219310
  72.3279310  52.2219310  73.9129310  73.4849310  51.2529310  74.0249310
  72.6639310  51.4259310  73.7849310  74.6129310  36.3909310  57.3729310
  74.9549310  36.3999310  58.2669310  74.1279310  37.2129310  57.2949310
  74.5949310  36.4979310  57.4769310  69.7819310  36.3069310  67.2769310
  70.6159310  36.7609310  67.1529310  69.1939310  36.7059310  66.6369310
  69.8139310  36.4159310  67.1799310  77.2159310  40.9019310  65.0269310
  77.3019310  40.1179310  65.5699310  77.6559310  41.5889310  65.5269310
  77.2829310  40.8899310  65.1599310  70.2909310  53.1239310  61.5459310
  69.5099310  52.9929310  61.0079310  70.2609310  54.0489310  61.7899310
  70.1869310  53.2259310  61.5079310  76.6439310  49.3899310  66.2359310
  76.1639310  48.5819310  66.4129310  77.3739310  49.3759310  66.8549310
  76.6759310  49.2849310  66.3379310  76.1869310  41.8909310  70.6229310
  75.3419310  41.5709310  70.9399310  76.6599310  41.0999310  70.3639310
  76.1389310  41.7489310  70.6309310  72.0219310  51.6489310  60.0799310
  71.4399310  52.1469310  60.6529310  72.2509310  52.2599310  59.3799310
  71.9769310  51.7909310  60.0639310  75.3759310  46.1169310  71.9849310
  76.2559310  45.7439310  71.9329310  74.8379310  45.5359310  71.4479310
  75.4199310  45.9949310  71.9099310  72.6589310  43.9519310  69.2599310
  72.2819310  43.8249310  70.1299310  72.0959310  43.4409310  68.6779310
  72.5389310  43.8709310  69.2969310  69.6489310  47.0279310  65.5359310
  70.0429310  46.9579310  64.6659310  70.2609310  46.5729310  66.1129310
  69.7779310  46.9609310  65.4979310  79.1199310  43.5719310  61.3869310
  78.4479310  42.8909310  61.4169310  79.1989310  43.7889310  60.4579310
  79.0439310  43.5129310  61.2719310  73.7849310  40.8729310  69.3019310
  73.1949310  40.1339310  69.1499310  74.3969310  40.8449310  68.5669310
  73.7879310  40.7749310  69.1879310  75.1699310  47.0649310  67.3339310
  75.1299310  46.1099310  67.2969310  74.7149310  47.2929310  68.1439310
  75.1069310  46.9719310  67.4329310  68.7529310  42.8199310  61.1529310
  69.4179310  43.4199310  61.4909310  67.9209310  43.2539310  61.3419310
  68.7319310  42.9519310  61.2209310  71.0859310  47.2649310  63.3549310
  71.7649310  46.9849310  63.9689310  71.1839310  48.2149310  63.3059310
  71.1849310  47.3509310  63.4279310  76.4999310  46.0009310  58.4419310
  76.1169310  45.6919310  57.6209310  76.7389310  46.9119310  58.2669310
  76.4819310  46.0779310  58.3149310  70.7559310  37.4559310  64.1199310
  70.5179310  36.6369310  63.6859310  69.9949310  38.0239310  63.9929310
  70.6279310  37.4239310  64.0479310  75.3269310  36.2709310  60.1239310
  75.5719310  35.3959310  60.4249310  75.1119310  36.7479310  60.9249310
  75.3309310  36.2199310  60.2649310  72.1649310  40.5359310  58.1579310
  71.2399310  40.2929310  58.1959310  72.1609310  41.4559310  57.8929310
  72.0469310  40.6229310  58.1289310  74.1339310  44.8889310  61.4469310
  74.9569310  45.3749310  61.4089310  74.1849310  44.3939310  62.2639310
  74.2459310  44.8879310  61.5459310  70.8249310  52.7639310  65.5229310
  70.2829310  53.1869310  66.1899310  71.7239310  52.9609310  65.7849310
  70.8699310  52.8439310  65.6419310  76.4289310  46.5259310  61.4489310
  75.9059310  47.2289310  61.8349310  76.4409310  46.7219310  60.5129310
  76.3639310  46.6409310  61.3789310  72.3659310  46.8289310  72.4429310
  72.3279310  47.1459310  71.5409310  71.4939310  46.4699310  72.6079310
  72.2489310  46.8229310  72.3489310  76.2739310  48.5689310  71.0179310
  75.4909310  48.9749310  70.6489310  75.9859310  47.6979310  71.2909310
  76.1369310  48.5089310  71.0059310  70.0119310  50.5809310  67.7609310
  70.6669310  50.9419310  67.1639310  69.3339310  50.2259310  67.1859310
  70.0089310  50.5819310  67.6109310  75.2999310  44.5259310  69.4969310
  75.6249310  43.7229310  69.9039310  74.4309310  44.2939310  69.1709310
  75.2299310  44.3939310  69.5069310  76.0369310  41.3539310  58.4669310
  75.5559310  40.5369310  58.3359310  76.4709310  41.5129310  57.6289310
  76.0309310  41.2699310  58.3429310  70.0009310  46.3909310  58.9249310
  70.7679310  46.0679310  59.3999310  69.2589310  46.1519310  59.4799310
  70.0039310  46.3189310  59.0569310  69.3389310  40.1469310  67.6209310
  70.1369310  39.7969310  67.2259310  69.3189310  39.7669310  68.4989310
  69.4379310  40.0529310  67.6829310  71.4239310  44.9339310  66.3339310
  72.3809310  44.9179310  66.3149310  71.1789310  44.1199310  66.7739310
  71.5149310  44.8279310  66.3879310  78.8009310  48.2969310  70.1819310
  79.1939310  49.1179310  70.4779310  77.8879310  48.3519310  70.4639310
  78.7349310  48.4089310  70.2559310  72.8249310  40.4579310  61.1559310
  72.7349310  40.1869310  60.2429310  71.9269310  40.6149310  61.4489310
  72.6979310  40.4439310  61.0769310  74.7709310  43.3739310  63.5559310
  74.9589310  42.6219310  62.9939310  75.6269310  43.7649310  63.7259310
  74.9039310  43.3279310  63.5059310  76.4269310  38.2339310  72.7959310
  77.3489310  38.3099310  73.0399310  75.9749310  38.8509310  73.3709310
  76.4869310  38.3219310  72.8999310  73.4179310  35.2439310  65.7149310
  73.5889310  36.1649310  65.9139310  73.9839310  34.7599310  66.3159310
  73.5119310  35.2999310  65.8169310  77.2209310  48.5809310  57.8389310
  78.0649310  48.5429310  58.2899310  77.4439310  48.7859310  56.9309310
  77.3579310  48.6019310  57.7809310  74.2719310  44.3709310  66.1079310
  74.5289310  43.9529310  65.2859310  74.3559310  43.6789310  66.7639310
  74.3159310  44.2289310  66.0869310  78.9739310  53.2399310  63.9059310
  78.7889310  52.4129310  63.4599310  78.6619310  53.9129310  63.3009310
  78.9099310  53.2199310  63.7709310  76.7639310  53.6199310  66.0789310
  76.7299310  52.9329310  66.7439310  77.2399310  53.2249310  65.3489310
  76.8199310  53.4819310  66.0709310  78.2749310  41.7289310  67.8829310
  77.8259310  40.9749310  68.2649310  78.9969310  41.3489310  67.3829310
  78.3099310  41.5839310  67.8679310  75.2979310  38.4659310  61.8659310
  75.1499310  39.4089310  61.7879310  74.5059310  38.1339310  62.2899310
  75.1779310  38.5439310  61.9099310  74.5539310  38.9549310  58.4609310
  73.6369310  38.7399310  58.6269310  75.0289310  38.5669310  59.1959310
  74.4969310  38.8779310  58.5759310  71.1959310  43.7009310  71.7319310
  70.5169310  44.3399310  71.9519310  70.7869310  42.8519310  71.8949310
  71.0559310  43.6739310  71.7809310  69.3439310  36.6099310  70.3139310
  70.2059310  36.5709310  70.7279310  69.5299310  36.7599310  69.3869310
  69.4779310  36.6239310  70.2479310  70.1589310  40.6819310  62.3439310
  70.5589310  41.2669310  62.9879310  69.6949310  41.2669310  61.7449310
  70.1509310  40.8319310  62.3499310  72.1189310  35.3609310  58.3889310
  72.1199310  36.1029310  58.9929310  72.6229310  35.6649310  57.6349310
  72.1839310  35.4949310  58.3699310  73.0349310  47.3969310  58.6729310
  73.1209310  47.3459310  57.7209310  72.4819310  48.1649310  58.8219310
  72.9749310  47.4889310  58.5699310  70.5489310  42.6179310  67.5319310
  69.7699310  43.1239310  67.7629310  70.2869310  41.7049310  67.6549310
  70.4159310  42.5659310  67.5769310  73.6449310  46.7749310  64.6379310
  73.5579310  47.5549310  65.1869310  73.7169310  46.0509310  65.2609310
  73.6429310  46.7819310  64.7879310  69.2759310  37.8589310  59.8429310
  69.2189310  37.6049310  58.9219310  68.7279310  38.6409310  59.9109310
  69.1989310  37.9269310  59.7339310  73.7469310  41.9159310  71.8219310
  73.6559310  41.7959310  70.8769310  73.0229310  42.4939310  72.0599310
  73.6429310  41.9749310  71.7309310  74.8289310  35.4319310  63.2739310
  74.4239310  35.1009310  64.0759310  74.9359310  34.6579310  62.7219310
  74.7909310  35.2909310  63.3059310  75.3719310  41.4779310  61.1599310
  75.7449310  41.4129310  60.2809310  74.4669310  41.1819310  61.0589310
  75.3039310  41.4309310  61.0349310  75.0709310  48.6349310  59.5939310
  74.3389310  48.1459310  59.2179310  75.7309310  48.6479310  58.9019310
  75.0609310  48.5739310  59.4579310  77.5169310  38.3749310  63.5449310
  76.6649310  38.2369310  63.1329310  77.5669310  39.3219310  63.6809310
  77.4149310  38.4789310  63.5099310  70.0169310  51.9799310  70.1649310
  69.7239310  51.7069310  69.2949310  69.7089310  52.8819310  70.2489310
  69.9399310  52.0599310  70.0639310  72.3889310  39.0429310  72.7359310
  73.1799310  39.0759310  72.1989310  72.0289310  39.9289310  72.6879310
  72.4439310  39.1599310  72.6609310  78.5619310  42.0459310  56.7839310
  78.5429310  42.6959310  57.4859310  78.9169310  41.2579310  57.1959310
  78.6049310  42.0289310  56.9259310  73.9319310  49.3439310  69.5629310
  73.3619310  50.0309310  69.9099310  73.4799310  48.5279310  69.7769310
  73.8009310  49.3279310  69.6349310  78.2349310  36.5489310  61.6359310
  78.0099310  37.3339310  62.1349310  79.1339310  36.7009310  61.3439310
  78.3219310  36.6689310  61.6629310  77.4899310  38.6839310  66.9209310
  76.6389310  38.2529310  66.8339310  77.5889310  38.8309310  67.8619310
  77.3929310  38.6479310  67.0299310  74.9119310  48.2179310  62.7569310
  74.2759310  47.7629310  63.3079310  74.4239310  48.9519310  62.3839310
  74.7689310  48.2539310  62.7799310  77.2019310  49.8589310  73.7439310
  76.8149310  49.4939310  72.9479310  76.5539310  50.4879310  74.0589310
  77.0689310  49.8919310  73.6829310  69.5619310  49.2129310  71.1129310
  69.1799310  50.0559310  71.3569310  70.3859310  49.4389310  70.6819310
  69.6179310  49.3499310  71.0889310  71.4649310  38.8389310  66.5349310
  71.3709310  38.3719310  65.7049310  72.2879310  38.5159310  66.8999310
  71.5579310  38.7379310  66.4759310  73.6279310  38.0969310  67.7909310
  74.0799310  37.5179310  68.4049310  74.1909310  38.1119310  67.0179310
  73.7579310  38.0249310  67.7709310  70.2099310  41.1969310  72.0599310
  69.6439310  41.5579310  71.3779310  69.7139310  41.3129310  72.8699310
  70.0739310  41.2579310  72.0759310  78.0259310  51.2409310  62.2059310
  77.7879310  50.4279310  62.6499310  77.2209310  51.5189310  61.7689310
  77.8929310  51.1729310  62.2069310  72.6269310  46.9549310  69.6349310
  72.1659310  47.2989310  68.8699310  72.7079310  46.0169310  69.4629310
  72.5779310  46.8789310  69.5149310  70.8229310  44.5959310  61.8199310
  71.7789310  44.6279310  61.8469310  70.5519310  45.5129310  61.8579310
  70.9109310  44.7169310  61.8279310  72.1819310  37.8859310  59.7909310
  72.4899310  37.9509310  60.6949310  71.2639310  37.6279310  59.8699310
  72.1039310  37.8609310  59.9169310  68.1109310  48.1989310  58.1359310
  68.7389310  47.6759310  58.6349310  68.6049310  48.5049310  57.3749310
  68.2549310  48.1709310  58.1029310  73.7829310  50.2829310  61.4069310
  73.0829310  50.6809310  60.8899310  74.2149310  49.6799310  60.8009310
  73.7489310  50.2569310  61.2629310  77.2019310  44.6099310  63.5479310
  77.7159310  44.0099310  63.0079310  76.9279310  45.2999310  62.9439310
  77.2319310  44.6209310  63.4019310  69.6889310  51.9649310  57.5939310
  70.2459310  51.2059310  57.7659310  70.2569310  52.7189310  57.7499310
  69.8329310  51.9639310  57.6359310  74.9779310  37.9939310  65.4589310
  74.7999310  38.5839310  64.7269310  75.4629310  37.2669310  65.0689310
  75.0169310  37.9769310  65.3159310  68.5829310  44.5839310  64.0359310
  69.1799310  44.8399310  63.3319310  68.8859310  45.0789310  64.7979310
  68.6979310  44.6799310  64.0429310  71.2639310  48.0909310  67.8409310
  71.5229310  48.7839310  67.2329310  70.3919310  48.3499310  68.1399310
  71.1859310  48.2129310  67.8009310  77.8819310  42.5919310  72.7269310
  77.1279310  42.2619310  72.2379310  77.6809310  42.3939310  73.6409310
  77.7599310  42.5239310  72.7809310  75.4039310  37.3789310  51.4579310
  75.6319310  37.3509310  52.3869310  74.7749310  36.6669310  51.3449310
  75.3529310  37.2839310  51.5629310  72.8029310  51.5649310  51.7179310
  71.8489310  51.4969310  51.6859310  72.9919310  51.8719310  52.6039310
  72.7049310  51.5959310  51.8269310  77.5679310  49.0089310  44.8809310
  77.3939310  49.1699310  45.8089310  76.8029310  48.5229310  44.5749310
  77.4479310  48.9669310  44.9609310  73.3199310  35.6649310  50.9639310
  72.7599310  36.1129310  51.5979310  73.1739310  34.7339310  51.1309310
  73.2299310  35.6029310  51.0659310  74.1389310  43.9059310  40.2119310
  73.9849310  44.3629310  41.0389310  74.8509310  43.2959310  40.4039310
  74.2099310  43.8859310  40.3419310  77.5339310  39.1149310  50.8169310
  76.9309310  38.4739310  51.1919310  78.3229310  39.0459310  51.3549310
  77.5579310  39.0249310  50.9339310  78.0719310  35.5519310  57.0949310
  78.9639310  35.3229310  56.8309310  77.5499310  35.4309310  56.3019310
  78.1199310  35.5079310  56.9599310  71.0259310  50.1619310  45.1749310
  71.0639310  51.0549310  44.8309310  70.2269310  50.1409310  45.7009310
  70.9289310  50.2739310  45.1979310  75.7369310  51.9519310  41.8639310
  74.9379310  51.4249310  41.8739310  76.0809310  51.8489310  40.9769310
  75.6789310  51.8709310  41.7519310  77.6119310  37.9879310  39.5729310
  77.3459310  37.5249310  40.3679310  77.6279310  37.3109310  38.8969310
  77.5799310  37.8419310  39.5889310  77.8469310  45.1759310  52.8569310
  77.7189310  44.3109310  53.2459310  78.2899310  45.0009310  52.0259310
  77.8869310  45.0429310  52.7999310  68.9709310  39.5059310  51.4139310
  69.2479310  40.0749310  52.1319310  68.3689310  38.8829310  51.8209310
  68.9299310  39.4989310  51.5579310  69.8439310  45.8429310  54.0069310
  68.9229310  45.6229310  53.8669310  69.9239310  45.9499310  54.9539310
  69.7359310  45.8279310  54.1099310  73.5459310  40.1119310  44.9839310
  73.1389310  40.1109310  44.1169310  73.0599310  40.7749310  45.4749310
  73.4319310  40.1969310  44.9359310  71.6649310  36.5079310  53.0019310
  71.8719310  37.4059310  53.2589310  71.3089310  36.1069310  53.7949310
  71.6459310  36.5709310  53.1359310  72.9729310  37.2989310  43.7019310
  72.2149310  37.2859310  44.2869310  73.5049310  36.5549310  43.9829310
  72.9439310  37.2019310  43.8129310  77.6329310  41.4979310  43.5329310
  76.8079310  41.4799310  43.0479310  77.3819310  41.3119310  44.4379310
  77.4949310  41.4719310  43.5869310  74.7469310  51.1629310  48.1499310
  74.4859310  50.7879310  48.9909310  75.4779310  50.6179310  47.8609310
  74.8069310  51.0449310  48.2199310  72.9849310  49.3559310  46.8649310
  72.2609310  49.6589310  46.3169310  73.5789310  50.1059310  46.9129310
  72.9689310  49.4909310  46.8009310  69.5339310  39.5099310  57.0549310
  69.3359310  39.5909310  56.1229310  68.7399310  39.8129310  57.4959310
  69.4069310  39.5589310  56.9919310  72.4579310  43.1199310  38.2029310
  71.8549310  43.8569310  38.1069310  73.0869310  43.4099310  38.8639310
  72.4609310  43.2509310  38.2749310  76.8849310  51.5819310  39.4959310
  77.3439310  50.7599310  39.6679310  77.5829310  52.2219310  39.3569310
  77.0329310  51.5589310  39.4999310  75.6079310  42.0729310  48.4779310
  76.4889310  42.3649310  48.7099310  75.6939310  41.7389310  47.5849310
  75.7319310  42.0679310  48.3929310  69.5019310  48.5359310  55.8119310
  68.7399310  49.1039310  55.6949310  69.7069310  48.2259310  54.9299310
  69.4299310  48.5689310  55.6839310  71.5729310  49.8309310  57.1489310
  72.0559310  50.3919310  56.5419310  71.1299310  49.1949310  56.5879310
  71.5779310  49.8219310  56.9999310  75.1989310  51.5669310  55.9469310
  75.7729310  51.4799310  56.7079310  75.1569310  52.5089310  55.7849310
  75.2669310  51.6759310  56.0229310  75.5539310  45.4209310  55.8479310
  75.3969310  44.4769310  55.8119310  75.4649310  45.7129310  54.9409310
  75.5219310  45.3369310  55.7269310  72.5799310  51.3179310  54.8619310
  72.3279310  52.2219310  55.0529310  73.4849310  51.2529310  55.1649310
  72.6639310  51.4259310  54.9249310  74.6129310  36.3909310  38.5129310
  74.9549310  36.3999310  39.4069310  74.1279310  37.2129310  38.4349310
  74.5949310  36.4979310  38.6169310  69.7819310  36.3069310  48.4169310
  70.6159310  36.7609310  48.2929310  69.1939310  36.7059310  47.7769310
  69.8139310  36.4159310  48.3199310  70.8809310  35.4399310  55.4289310
  70.0479310  35.0129310  55.6299310  70.8479310  36.2669310  55.9089310
  70.7699310  35.4909310  55.5159310  77.2159310  40.9019310  46.1669310
  77.3019310  40.1179310  46.7099310  77.6559310  41.5889310  46.6669310
  77.2829310  40.8899310  46.2999310  70.2909310  53.1239310  42.6859310
  69.5099310  52.9929310  42.1479310  70.2609310  54.0489310  42.9299310
  70.1869310  53.2259310  42.6479310  76.6439310  49.3899310  47.3759310
  76.1639310  48.5819310  47.5529310  77.3739310  49.3759310  47.9949310
  76.6759310  49.2849310  47.4779310  76.1869310  41.8909310  51.7629310
  75.3419310  41.5709310  52.0799310  76.6599310  41.0999310  51.5039310
  76.1389310  41.7489310  51.7709310  73.1139310  47.0769310  56.0969310
  73.9249310  46.5889310  55.9549310  72.8449310  47.3539310  55.2209310
  73.1829310  47.0499310  55.9659310  72.0219310  51.6489310  41.2199310
  71.4399310  52.1469310  41.7929310  72.2509310  52.2599310  40.5199310
  71.9769310  51.7909310  41.2039310  75.3759310  46.1169310  53.1249310
  76.2559310  45.7439310  53.0729310  74.8379310  45.5359310  52.5879310
  75.4199310  45.9949310  53.0499310  72.6589310  43.9519310  50.3999310
  72.2819310  43.8249310  51.2699310  72.0959310  43.4409310  49.8179310
  72.5389310  43.8709310  50.4369310  69.6489310  47.0279310  46.6759310
  70.0429310  46.9579310  45.8059310  70.2609310  46.5729310  47.2529310
  69.7779310  46.9609310  46.6379310  79.1199310  43.5719310  42.5269310
  78.4479310  42.8909310  42.5569310  79.1989310  43.7889310  41.5979310
  79.0439310  43.5129310  42.4119310  72.8069310  38.4249310  56.4899310
  72.6539310  38.7049310  55.5879310  72.5699310  39.1849310  57.0209310
  72.7569310  38.5579310  56.4429310  74.7399310  42.5459310  55.5959310
  74.6249310  42.2619310  54.6889310  73.8489310  42.6489310  55.9289310
  74.6109310  42.5229310  55.5219310  73.7849310  40.8729310  50.4419310
  73.1949310  40.1339310  50.2899310  74.3969310  40.8449310  49.7069310
  73.7879310  40.7749310  50.3279310  75.1699310  47.0649310  48.4739310
  75.1299310  46.1099310  48.4369310  74.7149310  47.2929310  49.2839310
  75.1069310  46.9719310  48.5729310  68.7529310  42.8199310  42.2929310
  69.4179310  43.4199310  42.6309310  67.9209310  43.2539310  42.4819310
  68.7319310  42.9519310  42.3609310  71.0859310  47.2649310  44.4949310
  71.7649310  46.9849310  45.1089310  71.1839310  48.2149310  44.4459310
  71.1849310  47.3509310  44.5679310  76.4999310  46.0009310  39.5819310
  76.1169310  45.6919310  38.7609310  76.7389310  46.9119310  39.4069310
  76.4819310  46.0779310  39.4549310  70.7559310  37.4559310  45.2599310
  70.5179310  36.6369310  44.8259310  69.9949310  38.0239310  45.1329310
  70.6279310  37.4239310  45.1879310  75.3269310  36.2709310  41.2639310
  75.5719310  35.3959310  41.5649310  75.1119310  36.7479310  42.0649310
  75.3309310  36.2199310  41.4049310  72.1649310  40.5359310  39.2979310
  71.2399310  40.2929310  39.3359310  72.1609310  41.4559310  39.0329310
  72.0469310  40.6229310  39.2689310  74.1339310  44.8889310  42.5869310
  74.9569310  45.3749310  42.5489310  74.1849310  44.3939310  43.4039310
  74.2459310  44.8879310  42.6859310  70.8249310  52.7639310  46.6629310
  70.2829310  53.1869310  47.3299310  71.7239310  52.9609310  46.9249310
  70.8699310  52.8439310  46.7819310  76.4289310  46.5259310  42.5889310
  75.9059310  47.2289310  42.9749310  76.4409310  46.7219310  41.6529310
  76.3639310  46.6409310  42.5189310  72.3659310  46.8289310  53.5829310
  72.3279310  47.1459310  52.6809310  71.4939310  46.4699310  53.7479310
  72.2489310  46.8229310  53.4889310  76.2739310  48.5689310  52.1579310
  75.4909310  48.9749310  51.7889310  75.9859310  47.6979310  52.4309310
  76.1369310  48.5089310  52.1459310  70.0119310  50.5809310  48.9009310
  70.6669310  50.9419310  48.3039310  69.3339310  50.2259310  48.3259310
  70.0089310  50.5819310  48.7509310  75.2999310  44.5259310  50.6369310
  75.6249310  43.7229310  51.0439310  74.4309310  44.2939310  50.3109310
  75.2299310  44.3939310  50.6469310  70.9159310  45.4599310  56.6059310
  71.7189310  45.9699310  56.4959310  70.4659310  45.8779310  57.3399310
  70.9609310  45.5789310  56.6859310  76.0369310  41.3539310  39.6069310
  75.5559310  40.5369310  39.4759310  76.4709310  41.5129310  38.7689310
  76.0309310  41.2699310  39.4829310  70.0009310  46.3909310  40.0649310
  70.7679310  46.0679310  40.5399310  69.2589310  46.1519310  40.6199310
  70.0039310  46.3189310  40.1969310  69.3389310  40.1469310  48.7609310
  70.1369310  39.7969310  48.3659310  69.3189310  39.7669310  49.6389310
  69.4379310  40.0529310  48.8229310  71.4239310  44.9339310  47.4739310
  72.3809310  44.9179310  47.4549310  71.1789310  44.1199310  47.9139310
  71.5149310  44.8279310  47.5279310  78.8009310  48.2969310  51.3219310
  79.1939310  49.1179310  51.6179310  77.8879310  48.3519310  51.6039310
  78.7349310  48.4089310  51.3959310  72.8249310  40.4579310  42.2959310
  72.7349310  40.1869310  41.3829310  71.9269310  40.6149310  42.5889310
  72.6979310  40.4439310  42.2169310  74.7709310  43.3739310  44.6959310
  74.9589310  42.6219310  44.1339310  75.6269310  43.7649310  44.8659310
  74.9039310  43.3279310  44.6459310  76.4269310  38.2339310  53.9359310
  77.3489310  38.3099310  54.1799310  75.9749310  38.8509310  54.5109310
  76.4869310  38.3219310  54.0399310  73.4179310  35.2439310  46.8549310
  73.5889310  36.1649310  47.0539310  73.9839310  34.7599310  47.4559310
  73.5119310  35.2999310  46.9569310  77.2209310  48.5809310  38.9789310
  78.0649310  48.5429310  39.4299310  77.4439310  48.7859310  38.0709310
  77.3579310  48.6019310  38.9209310  74.2719310  44.3709310  47.2479310
  74.5289310  43.9529310  46.4259310  74.3559310  43.6789310  47.9039310
  74.3159310  44.2289310  47.2269310  78.9739310  53.2399310  45.0459310
  78.7889310  52.4129310  44.5999310  78.6619310  53.9129310  44.4409310
  78.9099310  53.2199310  44.9109310  76.7639310  53.6199310  47.2189310
  76.7299310  52.9329310  47.8839310  77.2399310  53.2249310  46.4889310
  76.8199310  53.4819310  47.2109310  78.2749310  41.7289310  49.0229310
  77.8259310  40.9749310  49.4049310  78.9969310  41.3489310  48.5229310
  78.3099310  41.5839310  49.0079310  75.2979310  38.4659310  43.0059310
  75.1499310  39.4089310  42.9279310  74.5059310  38.1339310  43.4299310
  75.1779310  38.5439310  43.0499310  74.5539310  38.9549310  39.6009310
  73.6369310  38.7399310  39.7669310  75.0289310  38.5669310  40.3359310
  74.4969310  38.8779310  39.7159310  71.1959310  43.7009310  52.8719310
  70.5169310  44.3399310  53.0919310  70.7869310  42.8519310  53.0349310
  71.0559310  43.6739310  52.9209310  69.3439310  36.6099310  51.4539310
  70.2059310  36.5709310  51.8679310  69.5299310  36.7599310  50.5269310
  69.4779310  36.6239310  51.3879310  68.8029310  41.7809310  55.4409310
  68.2029310  42.5139310  55.5819310  69.3499310  41.7639310  56.2269310
  68.7959310  41.8729310  55.5599310  70.1589310  40.6819310  43.4839310
  70.5589310  41.2669310  44.1279310  69.6949310  41.2669310  42.8849310
  70.1509310  40.8319310  43.4899310  72.1189310  35.3609310  39.5289310
  72.1199310  36.1029310  40.1329310  72.6229310  35.6649310  38.7749310
  72.1839310  35.4949310  39.5099310  73.0349310  47.3969310  39.8129310
  73.1209310  47.3459310  38.8609310  72.4819310  48.1649310  39.9619310
  72.9749310  47.4889310  39.7099310  70.5489310  42.6179310  48.6719310
  69.7699310  43.1239310  48.9029310  70.2869310  41.7049310  48.7949310
  70.4159310  42.5659310  48.7169310  73.6449310  46.7749310  45.7779310
  73.5579310  47.5549310  46.3269310  73.7169310  46.0509310  46.4009310
  73.6429310  46.7819310  45.9279310  69.2759310  37.8589310  40.9829310
  69.2189310  37.6049310  40.0619310  68.7279310  38.6409310  41.0509310
  69.1989310  37.9269310  40.8739310  73.7469310  41.9159310  52.9619310
  73.6559310  41.7959310  52.0169310  73.0229310  42.4939310  53.1999310
  73.6429310  41.9749310  52.8709310  74.8289310  35.4319310  44.4139310
  74.4239310  35.1009310  45.2159310  74.9359310  34.6579310  43.8619310
  74.7909310  35.2909310  44.4459310  75.3719310  41.4779310  42.2999310
  75.7449310  41.4129310  41.4209310  74.4669310  41.1819310  42.1989310
  75.3039310  41.4309310  42.1749310  75.0709310  48.6349310  40.7339310
  74.3389310  48.1459310  40.3579310  75.7309310  48.6479310  40.0419310
  75.0609310  48.5739310  40.5979310  77.5169310  38.3749310  44.6849310
  76.6649310  38.2369310  44.2729310  77.5669310  39.3219310  44.8209310
  77.4149310  38.4789310  44.6499310  70.0169310  51.9799310  51.3049310
  69.7239310  51.7069310  50.4349310  69.7089310  52.8819310  51.3889310
  69.9399310  52.0599310  51.2039310  72.3889310  39.0429310  53.8759310
  73.1799310  39.0759310  53.3389310  72.0289310  39.9289310  53.8279310
  72.4439310  39.1599310  53.8009310  78.5619310  42.0459310  37.9239310
  78.5429310  42.6959310  38.6259310  78.9169310  41.2579310  38.3359310
  78.6049310  42.0289310  38.0659310  73.9319310  49.3439310  50.7029310
  73.3619310  50.0309310  51.0499310  73.4799310  48.5279310  50.9169310
  73.8009310  49.3279310  50.7749310  78.2349310  36.5489310  42.7759310
  78.0099310  37.3339310  43.2749310  79.1339310  36.7009310  42.4839310
  78.3219310  36.6689310  42.8029310  77.4899310  38.6839310  48.0609310
  76.6389310  38.2529310  47.9739310  77.5889310  38.8309310  49.0019310
  77.3929310  38.6479310  48.1699310  76.1209310  35.7049310  55.2119310
  75.5679310  36.0159310  55.9279310  76.1819310  36.4509310  54.6149310
  76.0579310  35.8399310  55.2269310  74.9119310  48.2179310  43.8969310
  74.2759310  47.7629310  44.4479310  74.4239310  48.9519310  43.5239310
  74.7689310  48.2539310  43.9199310  77.2019310  49.8589310  54.8839310
  76.8149310  49.4939310  54.0879310  76.5539310  50.4879310  55.1989310
  77.0689310  49.8919310  54.8229310  69.5619310  49.2129310  52.2529310
  69.1799310  50.0559310  52.4969310  70.3859310  49.4389310  51.8219310
  69.6179310  49.3499310  52.2289310  71.4649310  38.8389310  47.6749310
  71.3709310  38.3719310  46.8449310  72.2879310  38.5159310  48.0399310
  71.5579310  38.7379310  47.6159310  73.6279310  38.0969310  48.9309310
  74.0799310  37.5179310  49.5449310  74.1909310  38.1119310  48.1579310
  73.7579310  38.0249310  48.9109310  70.2099310  41.1969310  53.1999310
  69.6439310  41.5579310  52.5179310  69.7139310  41.3129310  54.0099310
  70.0739310  41.2579310  53.2159310  78.0259310  51.2409310  43.3459310
  77.7879310  50.4279310  43.7899310  77.2209310  51.5189310  42.9089310
  77.8929310  51.1729310  43.3469310  72.6269310  46.9549310  50.7749310
  72.1659310  47.2989310  50.0099310  72.7079310  46.0169310  50.6029310
  72.5779310  46.8789310  50.6549310  70.8229310  44.5959310  42.9599310
  71.7789310  44.6279310  42.9869310  70.5519310  45.5129310  42.9979310
  70.9109310  44.7169310  42.9679310  75.6629310  40.0549310  55.9029310
  74.8979310  39.6579310  56.3209310  75.4089310  40.9659310  55.7549310
  75.5319310  40.1209310  55.9379310  72.1819310  37.8859310  40.9309310
  72.4899310  37.9509310  41.8349310  71.2639310  37.6279310  41.0099310
  72.1039310  37.8609310  41.0569310  68.1109310  48.1989310  39.2759310
  68.7389310  47.6759310  39.7749310  68.6049310  48.5049310  38.5149310
  68.2549310  48.1709310  39.2429310  73.7829310  50.2829310  42.5469310
  73.0829310  50.6809310  42.0299310  74.2149310  49.6799310  41.9409310
  73.7489310  50.2569310  42.4029310  77.2019310  44.6099310  44.6879310
  77.7159310  44.0099310  44.1479310  76.9279310  45.2999310  44.0839310
  77.2319310  44.6209310  44.5419310  69.6889310  51.9649310  38.7339310
  70.2459310  51.2059310  38.9059310  70.2569310  52.7189310  38.8899310
  69.8329310  51.9639310  38.7759310  74.9779310  37.9939310  46.5989310
  74.7999310  38.5839310  45.8669310  75.4629310  37.2669310  46.2089310
  75.0169310  37.9769310  46.4559310  68.5829310  44.5839310  45.1759310
  69.1799310  44.8399310  44.4719310  68.8859310  45.0789310  45.9379310
  68.6979310  44.6799310  45.1829310  71.2639310  48.0909310  48.9809310
  71.5229310  48.7839310  48.3729310  70.3919310  48.3499310  49.2799310
  71.1859310  48.2129310  48.9409310  77.8819310  42.5919310  53.8669310
  77.1279310  42.2619310  53.3779310  77.6809310  42.3939310  54.7809310
  77.7599310  42.5239310  53.9209310  75.4039310  37.3789310  32.5979310
  75.6319310  37.3509310  33.5269310  74.7749310  36.6669310  32.4849310
  75.3529310  37.2839310  32.7029310  72.8029310  51.5649310  32.8579310
  71.8489310  51.4969310  32.8259310  72.9919310  51.8719310  33.7439310
  72.7049310  51.5959310  32.9669310  77.5679310  49.0089310  26.0209310
  77.3939310  49.1699310  26.9489310  76.8029310  48.5229310  25.7149310
  77.4479310  48.9669310  26.1009310  73.3199310  35.6649310  32.1039310
  72.7599310  36.1129310  32.7379310  73.1739310  34.7339310  32.2709310
  73.2299310  35.6029310  32.2059310  74.1389310  43.9059310  21.3519310
  73.9849310  44.3629310  22.1789310  74.8509310  43.2959310  21.5439310
  74.2099310  43.8859310  21.4819310  77.5339310  39.1149310  31.9569310
  76.9309310  38.4739310  32.3319310  78.3229310  39.0459310  32.4949310
  77.5579310  39.0249310  32.0739310  78.0719310  35.5519310  38.2349310
  78.9639310  35.3229310  37.9709310  77.5499310  35.4309310  37.4419310
  78.1199310  35.5079310  38.0999310  71.0259310  50.1619310  26.3149310
  71.0639310  51.0549310  25.9709310  70.2269310  50.1409310  26.8409310
  70.9289310  50.2739310  26.3379310  75.7369310  51.9519310  23.0039310
  74.9379310  51.4249310  23.0139310  76.0809310  51.8489310  22.1169310
  75.6789310  51.8709310  22.8919310  77.6119310  37.9879310  20.7129310
  77.3459310  37.5249310  21.5079310  77.6279310  37.3109310  20.0369310
  77.5799310  37.8419310  20.7289310  77.8469310  45.1759310  33.9969310
  77.7189310  44.3109310  34.3859310  78.2899310  45.0009310  33.1659310
  77.8869310  45.0429310  33.9399310  68.9709310  39.5059310  32.5539310
  69.2479310  40.0749310  33.2719310  68.3689310  38.8829310  32.9609310
  68.9299310  39.4989310  32.6979310  69.8439310  45.8429310  35.1469310
  68.9229310  45.6229310  35.0069310  69.9239310  45.9499310  36.0939310
  69.7359310  45.8279310  35.2499310  73.5459310  40.1119310  26.1239310
  73.1389310  40.1109310  25.2569310  73.0599310  40.7749310  26.6149310
  73.4319310  40.1969310  26.0759310  71.6649310  36.5079310  34.1419310
  71.8719310  37.4059310  34.3989310  71.3089310  36.1069310  34.9349310
  71.6459310  36.5709310  34.2759310  72.9729310  37.2989310  24.8419310
  72.2149310  37.2859310  25.4269310  73.5049310  36.5549310  25.1229310
  72.9439310  37.2019310  24.9529310  77.6329310  41.4979310  24.6729310
  76.8079310  41.4799310  24.1879310  77.3819310  41.3119310  25.5779310
  77.4949310  41.4719310  24.7269310  74.7469310  51.1629310  29.2899310
  74.4859310  50.7879310  30.1309310  75.4779310  50.6179310  29.0009310
  74.8069310  51.0449310  29.3599310  72.9849310  49.3559310  28.0049310
  72.2609310  49.6589310  27.4569310  73.5789310  50.1059310  28.0529310
  72.9689310  49.4909310  27.9409310  69.5339310  39.5099310  38.1949310
  69.3359310  39.5909310  37.2629310  68.7399310  39.8129310  38.6359310
  69.4069310  39.5589310  38.1319310  72.4579310  43.1199310  19.3429310
  71.8549310  43.8569310  19.2469310  73.0869310  43.4099310  20.0039310
  72.4609310  43.2509310  19.4149310  76.8849310  51.5819310  20.6359310
  77.3439310  50.7599310  20.8079310  77.5829310  52.2219310  20.4969310
  77.0329310  51.5589310  20.6399310  75.6079310  42.0729310  29.6179310
  76.4889310  42.3649310  29.8499310  75.6939310  41.7389310  28.7249310
  75.7319310  42.0679310  29.5329310  69.5019310  48.5359310  36.9519310
  68.7399310  49.1039310  36.8349310  69.7069310  48.2259310  36.0699310
  69.4299310  48.5689310  36.8239310  71.5729310  49.8309310  38.2889310
  72.0559310  50.3919310  37.6819310  71.1299310  49.1949310  37.7279310
  71.5779310  49.8219310  38.1399310  75.1989310  51.5669310  37.0869310
  75.7729310  51.4799310  37.8479310  75.1569310  52.5089310  36.9249310
  75.2669310  51.6759310  37.1629310  75.5539310  45.4209310  36.9879310
  75.3969310  44.4769310  36.9519310  75.4649310  45.7129310  36.0809310
  75.5219310  45.3369310  36.8669310  72.5799310  51.3179310  36.0019310
  72.3279310  52.2219310  36.1929310  73.4849310  51.2529310  36.3049310
  72.6639310  51.4259310  36.0649310  74.6129310  36.3909310  19.6529310
  74.9549310  36.3999310  20.5469310  74.1279310  37.2129310  19.5749310
  74.5949310  36.4979310  19.7569310  69.7819310  36.3069310  29.5569310
  70.6159310  36.7609310  29.4329310  69.1939310  36.7059310  28.9169310
  69.8139310  36.4159310  29.4599310  70.8809310  35.4399310  36.5689310
  70.0479310  35.0129310  36.7699310  70.8479310  36.2669310  37.0489310
  70.7699310  35.4909310  36.6559310  77.2159310  40.9019310  27.3069310
  77.3019310  40.1179310  27.8499310  77.6559310  41.5889310  27.8069310
  77.2829310  40.8899310  27.4399310  70.2909310  53.1239310  23.8259310
  69.5099310  52.9929310  23.2879310  70.2609310  54.0489310  24.0699310
  70.1869310  53.2259310  23.7879310  76.6439310  49.3899310  28.5159310
  76.1639310  48.5819310  28.6929310  77.3739310  49.3759310  29.1349310
  76.6759310  49.2849310  28.6179310  76.1869310  41.8909310  32.9029310
  75.3419310  41.5709310  33.2199310  76.6599310  41.0999310  32.6439310
  76.1389310  41.7489310  32.9109310  73.1139310  47.0769310  37.2369310
  73.9249310  46.5889310  37.0949310  72.8449310  47.3539310  36.3609310
  73.1829310  47.0499310  37.1059310  72.0219310  51.6489310  22.3599310
  71.4399310  52.1469310  22.9329310  72.2509310  52.2599310  21.6599310
  71.9769310  51.7909310  22.3439310  75.3759310  46.1169310  34.2649310
  76.2559310  45.7439310  34.2129310  74.8379310  45.5359310  33.7279310
  75.4199310  45.9949310  34.1899310  72.6589310  43.9519310  31.5399310
  72.2819310  43.8249310  32.4099310  72.0959310  43.4409310  30.9579310
  72.5389310  43.8709310  31.5769310  69.6489310  47.0279310  27.8159310
  70.0429310  46.9579310  26.9459310  70.2609310  46.5729310  28.3929310
  69.7779310  46.9609310  27.7779310  79.1199310  43.5719310  23.6669310
  78.4479310  42.8909310  23.6969310  79.1989310  43.7889310  22.7379310
  79.0439310  43.5129310  23.5519310  72.8069310  38.4249310  37.6299310
  72.6539310  38.7049310  36.7279310  72.5699310  39.1849310  38.1609310
  72.7569310  38.5579310  37.5829310  74.7399310  42.5459310  36.7359310
  74.6249310  42.2619310  35.8289310  73.8489310  42.6489310  37.0689310
  74.6109310  42.5229310  36.6619310  73.7849310  40.8729310  31.5819310
  73.1949310  40.1339310  31.4299310  74.3969310  40.8449310  30.8469310
  73.7879310  40.7749310  31.4679310  75.1699310  47.0649310  29.6139310
  75.1299310  46.1099310  29.5769310  74.7149310  47.2929310  30.4239310
  75.1069310  46.9719310  29.7129310  71.0859310  47.2649310  25.6349310
  71.7649310  46.9849310  26.2489310  71.1839310  48.2149310  25.5859310
  71.1849310  47.3509310  25.7079310  76.4999310  46.0009310  20.7219310
  76.1169310  45.6919310  19.9009310  76.7389310  46.9119310  20.5469310
  76.4819310  46.0779310  20.5949310  70.7559310  37.4559310  26.3999310
  70.5179310  36.6369310  25.9659310  69.9949310  38.0239310  26.2729310
  70.6279310  37.4239310  26.3279310  75.3269310  36.2709310  22.4039310
  75.5719310  35.3959310  22.7049310  75.1119310  36.7479310  23.2049310
  75.3309310  36.2199310  22.5449310  72.1649310  40.5359310  20.4379310
  71.2399310  40.2929310  20.4759310  72.1609310  41.4559310  20.1729310
  72.0469310  40.6229310  20.4089310  74.1339310  44.8889310  23.7269310
  74.9569310  45.3749310  23.6889310  74.1849310  44.3939310  24.5439310
  74.2459310  44.8879310  23.8259310  70.8249310  52.7639310  27.8029310
  70.2829310  53.1869310  28.4699310  71.7239310  52.9609310  28.0649310
  70.8699310  52.8439310  27.9219310  76.4289310  46.5259310  23.7289310
  75.9059310  47.2289310  24.1149310  76.4409310  46.7219310  22.7929310
  76.3639310  46.6409310  23.6589310  72.3659310  46.8289310  34.7229310
  72.3279310  47.1459310  33.8209310  71.4939310  46.4699310  34.8879310
  72.2489310  46.8229310  34.6289310  76.2739310  48.5689310  33.2979310
  75.4909310  48.9749310  32.9289310  75.9859310  47.6979310  33.5709310
  76.1369310  48.5089310  33.2859310  70.0119310  50.5809310  30.0409310
  70.6669310  50.9419310  29.4439310  69.3339310  50.2259310  29.4659310
  70.0089310  50.5819310  29.8909310  75.2999310  44.5259310  31.7769310
  75.6249310  43.7229310  32.1839310  74.4309310  44.2939310  31.4509310
  75.2299310  44.3939310  31.7869310  70.9159310  45.4599310  37.7459310
  71.7189310  45.9699310  37.6359310  70.4659310  45.8779310  38.4799310
  70.9609310  45.5789310  37.8259310  76.0369310  41.3539310  20.7469310
  75.5559310  40.5369310  20.6159310  76.4709310  41.5129310  19.9089310
  76.0309310  41.2699310  20.6229310  70.0009310  46.3909310  21.2049310
  70.7679310  46.0679310  21.6799310  69.2589310  46.1519310  21.7599310
  70.0039310  46.3189310  21.3369310  69.3389310  40.1469310  29.9009310
  70.1369310  39.7969310  29.5059310  69.3189310  39.7669310  30.7789310
  69.4379310  40.0529310  29.9629310  71.4239310  44.9339310  28.6139310
  72.3809310  44.9179310  28.5949310  71.1789310  44.1199310  29.0539310
  71.5149310  44.8279310  28.6679310  78.8009310  48.2969310  32.4619310
  79.1939310  49.1179310  32.7579310  77.8879310  48.3519310  32.7439310
  78.7349310  48.4089310  32.5359310  74.7709310  43.3739310  25.8359310
  74.9589310  42.6219310  25.2739310  75.6269310  43.7649310  26.0059310
  74.9039310  43.3279310  25.7859310  76.4269310  38.2339310  35.0759310
  77.3489310  38.3099310  35.3199310  75.9749310  38.8509310  35.6509310
  76.4869310  38.3219310  35.1799310  73.4179310  35.2439310  27.9949310
  73.5889310  36.1649310  28.1939310  73.9839310  34.7599310  28.5959310
  73.5119310  35.2999310  28.0969310  77.2209310  48.5809310  20.1189310
  78.0649310  48.5429310  20.5699310  77.4439310  48.7859310  19.2109310
  77.3579310  48.6019310  20.0609310  74.2719310  44.3709310  28.3879310
  74.5289310  43.9529310  27.5659310  74.3559310  43.6789310  29.0439310
  74.3159310  44.2289310  28.3669310  78.9739310  53.2399310  26.1859310
  78.7889310  52.4129310  25.7399310  78.6619310  53.9129310  25.5809310
  78.9099310  53.2199310  26.0509310  76.7639310  53.6199310  28.3589310
  76.7299310  52.9329310  29.0239310  77.2399310  53.2249310  27.6289310
  76.8199310  53.4819310  28.3509310  78.2749310  41.7289310  30.1629310
  77.8259310  40.9749310  30.5449310  78.9969310  41.3489310  29.6629310
  78.3099310  41.5839310  30.1479310  75.2979310  38.4659310  24.1459310
  75.1499310  39.4089310  24.0679310  74.5059310  38.1339310  24.5699310
  75.1779310  38.5439310  24.1899310  74.5539310  38.9549310  20.7409310
  73.6369310  38.7399310  20.9069310  75.0289310  38.5669310  21.4759310
  74.4969310  38.8779310  20.8559310  71.1959310  43.7009310  34.0119310
  70.5169310  44.3399310  34.2319310  70.7869310  42.8519310  34.1749310
  71.0559310  43.6739310  34.0609310  69.3439310  36.6099310  32.5939310
  70.2059310  36.5709310  33.0079310  69.5299310  36.7599310  31.6669310
  69.4779310  36.6239310  32.5279310  68.8029310  41.7809310  36.5809310
  68.2029310  42.5139310  36.7219310  69.3499310  41.7639310  37.3669310
  68.7959310  41.8729310  36.6999310  72.1189310  35.3609310  20.6689310
  72.1199310  36.1029310  21.2729310  72.6229310  35.6649310  19.9149310
  72.1839310  35.4949310  20.6499310  73.0349310  47.3969310  20.9529310
  73.1209310  47.3459310  20.0009310  72.4819310  48.1649310  21.1019310
  72.9749310  47.4889310  20.8499310  70.5489310  42.6179310  29.8119310
  69.7699310  43.1239310  30.0429310  70.2869310  41.7049310  29.9349310
  70.4159310  42.5659310  29.8569310  73.6449310  46.7749310  26.9179310
  73.5579310  47.5549310  27.4669310  73.7169310  46.0509310  27.5409310
  73.6429310  46.7819310  27.0679310  69.2759310  37.8589310  22.1229310
  69.2189310  37.6049310  21.2019310  68.7279310  38.6409310  22.1909310
  69.1989310  37.9269310  22.0139310  73.7469310  41.9159310  34.1019310
  73.6559310  41.7959310  33.1569310  73.0229310  42.4939310  34.3399310
  73.6429310  41.9749310  34.0109310  74.8289310  35.4319310  25.5539310
  74.4239310  35.1009310  26.3559310  74.9359310  34.6579310  25.0019310
  74.7909310  35.2909310  25.5859310  75.3719310  41.4779310  23.4399310
  75.7449310  41.4129310  22.5609310  74.4669310  41.1819310  23.3389310
  75.3039310  41.4309310  23.3149310  75.0709310  48.6349310  21.8739310
  74.3389310  48.1459310  21.4979310  75.7309310  48.6479310  21.1819310
  75.0609310  48.5739310  21.7379310  77.5169310  38.3749310  25.8249310
  76.6649310  38.2369310  25.4129310  77.5669310  39.3219310  25.9609310
  77.4149310  38.4789310  25.7899310  70.0169310  51.9799310  32.4449310
  69.7239310  51.7069310  31.5749310  69.7089310  52.8819310  32.5289310
  69.9399310  52.0599310  32.3439310  72.3889310  39.0429310  35.0159310
  73.1799310  39.0759310  34.4789310  72.0289310  39.9289310  34.9679310
  72.4439310  39.1599310  34.9409310  78.5619310  42.0459310  19.0639310
  78.5429310  42.6959310  19.7659310  78.9169310  41.2579310  19.4759310
  78.6049310  42.0289310  19.2059310  73.9319310  49.3439310  31.8429310
  73.3619310  50.0309310  32.1899310  73.4799310  48.5279310  32.0569310
  73.8009310  49.3279310  31.9149310  78.2349310  36.5489310  23.9159310
  78.0099310  37.3339310  24.4149310  79.1339310  36.7009310  23.6239310
  78.3219310  36.6689310  23.9429310  77.4899310  38.6839310  29.2009310
  76.6389310  38.2529310  29.1139310  77.5889310  38.8309310  30.1419310
  77.3929310  38.6479310  29.3099310  76.1209310  35.7049310  36.3519310
  75.5679310  36.0159310  37.0679310  76.1819310  36.4509310  35.7549310
  76.0579310  35.8399310  36.3669310  74.9119310  48.2179310  25.0369310
  74.2759310  47.7629310  25.5879310  74.4239310  48.9519310  24.6639310
  74.7689310  48.2539310  25.0599310  77.2019310  49.8589310  36.0239310
  76.8149310  49.4939310  35.2279310  76.5539310  50.4879310  36.3389310
  77.0689310  49.8919310  35.9629310  69.5619310  49.2129310  33.3929310
  69.1799310  50.0559310  33.6369310  70.3859310  49.4389310  32.9619310
  69.6179310  49.3499310  33.3689310  71.4649310  38.8389310  28.8149310
  71.3709310  38.3719310  27.9849310  72.2879310  38.5159310  29.1799310
  71.5579310  38.7379310  28.7559310  73.6279310  38.0969310  30.0709310
  74.0799310  37.5179310  30.6849310  74.1909310  38.1119310  29.2979310
  73.7579310  38.0249310  30.0509310  70.2099310  41.1969310  34.3399310
  69.6439310  41.5579310  33.6579310  69.7139310  41.3129310  35.1499310
  70.0739310  41.2579310  34.3559310  78.0259310  51.2409310  24.4859310
  77.7879310  50.4279310  24.9299310  77.2209310  51.5189310  24.0489310
  77.8929310  51.1729310  24.4869310  72.6269310  46.9549310  31.9149310
  72.1659310  47.2989310  31.1499310  72.7079310  46.0169310  31.7429310
  72.5779310  46.8789310  31.7949310  70.8229310  44.5959310  24.0999310
  71.7789310  44.6279310  24.1269310  70.5519310  45.5129310  24.1379310
  70.9109310  44.7169310  24.1079310  75.6629310  40.0549310  37.0429310
  74.8979310  39.6579310  37.4609310  75.4089310  40.9659310  36.8949310
  75.5319310  40.1209310  37.0779310  72.1819310  37.8859310  22.0709310
  72.4899310  37.9509310  22.9749310  71.2639310  37.6279310  22.1499310
  72.1039310  37.8609310  22.1969310  68.1109310  48.1989310  20.4159310
  68.7389310  47.6759310  20.9149310  68.6049310  48.5049310  19.6549310
  68.2549310  48.1709310  20.3829310  73.7829310  50.2829310  23.6869310
  73.0829310  50.6809310  23.1699310  74.2149310  49.6799310  23.0809310
  73.7489310  50.2569310  23.5429310  77.2019310  44.6099310  25.8279310
  77.7159310  44.0099310  25.2879310  76.9279310  45.2999310  25.2239310
  77.2319310  44.6209310  25.6819310  69.6889310  51.9649310  19.8739310
  70.2459310  51.2059310  20.0459310  70.2569310  52.7189310  20.0299310
  69.8329310  51.9639310  19.9159310  74.9779310  37.9939310  27.7389310
  74.7999310  38.5839310  27.0069310  75.4629310  37.2669310  27.3489310
  75.0169310  37.9769310  27.5959310  68.5829310  44.5839310  26.3159310
  69.1799310  44.8399310  25.6119310  68.8859310  45.0789310  27.0779310
  68.6979310  44.6799310  26.3229310  71.2639310  48.0909310  30.1209310
  71.5229310  48.7839310  29.5129310  70.3919310  48.3499310  30.4199310
  71.1859310  48.2129310  30.0809310  77.8819310  42.5919310  35.0069310
  77.1279310  42.2619310  34.5179310  77.6809310  42.3939310  35.9209310
  77.7599310  42.5239310  35.0609310  75.4039310  37.3789310  13.7379310
  75.6319310  37.3509310  14.6669310  74.7749310  36.6669310  13.6249310
  75.3529310  37.2839310  13.8429310  72.8029310  51.5649310  13.9979310
  71.8489310  51.4969310  13.9659310  72.9919310  51.8719310  14.8839310
  72.7049310  51.5959310  14.1069310  77.5679310  49.0089310   7.1609310
  77.3939310  49.1699310   8.0889310  76.8029310  48.5229310   6.8549310
  77.4479310  48.9669310   7.2409310  73.3199310  35.6649310  13.2439310
  72.7599310  36.1129310  13.8779310  73.1739310  34.7339310  13.4109310
  73.2299310  35.6029310  13.3459310  74.1389310  43.9059310   2.4919310
  73.9849310  44.3629310   3.3189310  74.8509310  43.2959310   2.6839310
  74.2099310  43.8859310   2.6219310  77.5339310  39.1149310  13.0969310
  76.9309310  38.4739310  13.4719310  78.3229310  39.0459310  13.6349310
  77.5579310  39.0249310  13.2139310  78.0719310  35.5519310  19.3749310
  78.9639310  35.3229310  19.1109310  77.5499310  35.4309310  18.5819310
  78.1199310  35.5079310  19.2399310  71.0259310  50.1619310   7.4549310
  71.0639310  51.0549310   7.1109310  70.2269310  50.1409310   7.9809310
  70.9289310  50.2739310   7.4779310  75.7369310  51.9519310   4.1439310
  74.9379310  51.4249310   4.1539310  76.0809310  51.8489310   3.2569310
  75.6789310  51.8709310   4.0319310  77.8469310  45.1759310  15.1369310
  77.7189310  44.3109310  15.5259310  78.2899310  45.0009310  14.3059310
  77.8869310  45.0429310  15.0799310  68.9709310  39.5059310  13.6939310
  69.2479310  40.0749310  14.4119310  68.3689310  38.8829310  14.1009310
  68.9299310  39.4989310  13.8379310  69.8439310  45.8429310  16.2869310
  68.9229310  45.6229310  16.1469310  69.9239310  45.9499310  17.2339310
  69.7359310  45.8279310  16.3899310  73.5459310  40.1119310   7.2639310
  73.1389310  40.1109310   6.3969310  73.0599310  40.7749310   7.7549310
  73.4319310  40.1969310   7.2159310  71.6649310  36.5079310  15.2819310
  71.8719310  37.4059310  15.5389310  71.3089310  36.1069310  16.0749310
  71.6459310  36.5709310  15.4159310  72.9729310  37.2989310   5.9819310
  72.2149310  37.2859310   6.5669310  73.5049310  36.5549310   6.2629310
  72.9439310  37.2019310   6.0929310  77.6329310  41.4979310   5.8129310
  76.8079310  41.4799310   5.3279310  77.3819310  41.3119310   6.7179310
  77.4949310  41.4719310   5.8669310  74.7469310  51.1629310  10.4299310
  74.4859310  50.7879310  11.2709310  75.4779310  50.6179310  10.1409310
  74.8069310  51.0449310  10.4999310  72.9849310  49.3559310   9.1449310
  72.2609310  49.6589310   8.5969310  73.5789310  50.1059310   9.1929310
  72.9689310  49.4909310   9.0809310  76.8849310  51.5819310   1.7759310
  77.3439310  50.7599310   1.9479310  77.5829310  52.2219310   1.6369310
  77.0329310  51.5589310   1.7799310  75.6079310  42.0729310  10.7579310
  76.4889310  42.3649310  10.9899310  75.6939310  41.7389310   9.8649310
  75.7319310  42.0679310  10.6729310  69.5019310  48.5359310  18.0919310
  68.7399310  49.1039310  17.9749310  69.7069310  48.2259310  17.2099310
  69.4299310  48.5689310  17.9639310  71.5729310  49.8309310  19.4289310
  72.0559310  50.3919310  18.8219310  71.1299310  49.1949310  18.8679310
  71.5779310  49.8219310  19.2799310  75.1989310  51.5669310  18.2269310
  75.7729310  51.4799310  18.9879310  75.1569310  52.5089310  18.0649310
  75.2669310  51.6759310  18.3029310  75.5539310  45.4209310  18.1279310
  75.3969310  44.4769310  18.0919310  75.4649310  45.7129310  17.2209310
  75.5219310  45.3369310  18.0069310  72.5799310  51.3179310  17.1419310
  72.3279310  52.2219310  17.3329310  73.4849310  51.2529310  17.4449310
  72.6639310  51.4259310  17.2049310  69.7819310  36.3069310  10.6969310
  70.6159310  36.7609310  10.5729310  69.1939310  36.7059310  10.0569310
  69.8139310  36.4159310  10.5999310  70.8809310  35.4399310  17.7089310
  70.0479310  35.0129310  17.9099310  70.8479310  36.2669310  18.1889310
  70.7699310  35.4909310  17.7959310  77.2159310  40.9019310   8.4469310
  77.3019310  40.1179310   8.9899310  77.6559310  41.5889310   8.9469310
  77.2829310  40.8899310   8.5799310  70.2909310  53.1239310   4.9659310
  69.5099310  52.9929310   4.4279310  70.2609310  54.0489310   5.2099310
  70.1869310  53.2259310   4.9279310  76.6439310  49.3899310   9.6559310
  76.1639310  48.5819310   9.8329310  77.3739310  49.3759310  10.2749310
  76.6759310  49.2849310   9.7579310  76.1869310  41.8909310  14.0429310
  75.3419310  41.5709310  14.3599310  76.6599310  41.0999310  13.7839310
  76.1389310  41.7489310  14.0509310  73.1139310  47.0769310  18.3769310
  73.9249310  46.5889310  18.2349310  72.8449310  47.3539310  17.5009310
  73.1829310  47.0499310  18.2459310  72.0219310  51.6489310   3.4999310
  71.4399310  52.1469310   4.0729310  72.2509310  52.2599310   2.7999310
  71.9769310  51.7909310   3.4839310  75.3759310  46.1169310  15.4049310
  76.2559310  45.7439310  15.3529310  74.8379310  45.5359310  14.8679310
  75.4199310  45.9949310  15.3299310  72.6589310  43.9519310  12.6799310
  72.2819310  43.8249310  13.5499310  72.0959310  43.4409310  12.0979310
  72.5389310  43.8709310  12.7169310  69.6489310  47.0279310   8.9559310
  70.0429310  46.9579310   8.0859310  70.2609310  46.5729310   9.5329310
  69.7779310  46.9609310   8.9179310  79.1199310  43.5719310   4.8069310
  78.4479310  42.8909310   4.8369310  79.1989310  43.7889310   3.8779310
  79.0439310  43.5129310   4.6919310  72.8069310  38.4249310  18.7699310
  72.6539310  38.7049310  17.8679310  72.5699310  39.1849310  19.3009310
  72.7569310  38.5579310  18.7229310  74.7399310  42.5459310  17.8759310
  74.6249310  42.2619310  16.9689310  73.8489310  42.6489310  18.2089310
  74.6109310  42.5229310  17.8019310  73.7849310  40.8729310  12.7219310
  73.1949310  40.1339310  12.5699310  74.3969310  40.8449310  11.9869310
  73.7879310  40.7749310  12.6079310  75.1699310  47.0649310  10.7539310
  75.1299310  46.1099310  10.7169310  74.7149310  47.2929310  11.5639310
  75.1069310  46.9719310  10.8529310  68.7529310  42.8199310   4.5729310
  69.4179310  43.4199310   4.9109310  67.9209310  43.2539310   4.7619310
  68.7319310  42.9519310   4.6409310  71.0859310  47.2649310   6.7749310
  71.7649310  46.9849310   7.3889310  71.1839310  48.2149310   6.7259310
  71.1849310  47.3509310   6.8479310  70.7559310  37.4559310   7.5399310
  70.5179310  36.6369310   7.1059310  69.9949310  38.0239310   7.4129310
  70.6279310  37.4239310   7.4679310  75.3269310  36.2709310   3.5439310
  75.5719310  35.3959310   3.8449310  75.1119310  36.7479310   4.3449310
  75.3309310  36.2199310   3.6849310  74.1339310  44.8889310   4.8669310
  74.9569310  45.3749310   4.8289310  74.1849310  44.3939310   5.6839310
  74.2459310  44.8879310   4.9659310  70.8249310  52.7639310   8.9429310
  70.2829310  53.1869310   9.6099310  71.7239310  52.9609310   9.2049310
  70.8699310  52.8439310   9.0619310  76.4289310  46.5259310   4.8689310
  75.9059310  47.2289310   5.2549310  76.4409310  46.7219310   3.9329310
  76.3639310  46.6409310   4.7989310  72.3659310  46.8289310  15.8629310
  72.3279310  47.1459310  14.9609310  71.4939310  46.4699310  16.0279310
  72.2489310  46.8229310  15.7689310  76.2739310  48.5689310  14.4379310
  75.4909310  48.9749310  14.0689310  75.9859310  47.6979310  14.7109310
  76.1369310  48.5089310  14.4259310  70.0119310  50.5809310  11.1809310
  70.6669310  50.9419310  10.5839310  69.3339310  50.2259310  10.6059310
  70.0089310  50.5819310  11.0309310  75.2999310  44.5259310  12.9169310
  75.6249310  43.7229310  13.3239310  74.4309310  44.2939310  12.5909310
  75.2299310  44.3939310  12.9269310  70.9159310  45.4599310  18.8859310
  71.7189310  45.9699310  18.7759310  70.4659310  45.8779310  19.6199310
  70.9609310  45.5789310  18.9659310  70.0009310  46.3909310   2.3449310
  70.7679310  46.0679310   2.8199310  69.2589310  46.1519310   2.8999310
  70.0039310  46.3189310   2.4769310  69.3389310  40.1469310  11.0409310
  70.1369310  39.7969310  10.6459310  69.3189310  39.7669310  11.9189310
  69.4379310  40.0529310  11.1029310  71.4239310  44.9339310   9.7539310
  72.3809310  44.9179310   9.7349310  71.1789310  44.1199310  10.1939310
  71.5149310  44.8279310   9.8079310  78.8009310  48.2969310  13.6019310
  79.1939310  49.1179310  13.8979310  77.8879310  48.3519310  13.8839310
  78.7349310  48.4089310  13.6759310  72.8249310  40.4579310   4.5759310
  72.7349310  40.1869310   3.6629310  71.9269310  40.6149310   4.8689310
  72.6979310  40.4439310   4.4969310  74.7709310  43.3739310   6.9759310
  74.9589310  42.6219310   6.4139310  75.6269310  43.7649310   7.1459310
  74.9039310  43.3279310   6.9259310  76.4269310  38.2339310  16.2159310
  77.3489310  38.3099310  16.4599310  75.9749310  38.8509310  16.7909310
  76.4869310  38.3219310  16.3199310  73.4179310  35.2439310   9.1349310
  73.5889310  36.1649310   9.3339310  73.9839310  34.7599310   9.7359310
  73.5119310  35.2999310   9.2369310  74.2719310  44.3709310   9.5279310
  74.5289310  43.9529310   8.7059310  74.3559310  43.6789310  10.1839310
  74.3159310  44.2289310   9.5069310  78.9739310  53.2399310   7.3259310
  78.7889310  52.4129310   6.8799310  78.6619310  53.9129310   6.7209310
  78.9099310  53.2199310   7.1909310  76.7639310  53.6199310   9.4989310
  76.7299310  52.9329310  10.1639310  77.2399310  53.2249310   8.7689310
  76.8199310  53.4819310   9.4909310  78.2749310  41.7289310  11.3029310
  77.8259310  40.9749310  11.6849310  78.9969310  41.3489310  10.8029310
  78.3099310  41.5839310  11.2879310  75.2979310  38.4659310   5.2859310
  75.1499310  39.4089310   5.2079310  74.5059310  38.1339310   5.7099310
  75.1779310  38.5439310   5.3299310  74.5539310  38.9549310   1.8809310
  73.6369310  38.7399310   2.0469310  75.0289310  38.5669310   2.6159310
  74.4969310  38.8779310   1.9959310  71.1959310  43.7009310  15.1519310
  70.5169310  44.3399310  15.3719310  70.7869310  42.8519310  15.3149310
  71.0559310  43.6739310  15.2009310  69.3439310  36.6099310  13.7339310
  70.2059310  36.5709310  14.1479310  69.5299310  36.7599310  12.8069310
  69.4779310  36.6239310  13.6679310  70.1589310  40.6819310   5.7639310
  70.5589310  41.2669310   6.4079310  69.6949310  41.2669310   5.1649310
  70.1509310  40.8319310   5.7699310  70.5489310  42.6179310  10.9519310
  69.7699310  43.1239310  11.1829310  70.2869310  41.7049310  11.0749310
  70.4159310  42.5659310  10.9969310  73.6449310  46.7749310   8.0579310
  73.5579310  47.5549310   8.6069310  73.7169310  46.0509310   8.6809310
  73.6429310  46.7819310   8.2079310  69.2759310  37.8589310   3.2629310
  69.2189310  37.6049310   2.3419310  68.7279310  38.6409310   3.3309310
  69.1989310  37.9269310   3.1539310  73.7469310  41.9159310  15.2419310
  73.6559310  41.7959310  14.2969310  73.0229310  42.4939310  15.4799310
  73.6429310  41.9749310  15.1509310  74.8289310  35.4319310   6.6939310
  74.4239310  35.1009310   7.4959310  74.9359310  34.6579310   6.1419310
  74.7909310  35.2909310   6.7259310  75.3719310  41.4779310   4.5799310
  75.7449310  41.4129310   3.7009310  74.4669310  41.1819310   4.4789310
  75.3039310  41.4309310   4.4549310  75.0709310  48.6349310   3.0139310
  74.3389310  48.1459310   2.6379310  75.7309310  48.6479310   2.3219310
  75.0609310  48.5739310   2.8779310  77.5169310  38.3749310   6.9649310
  76.6649310  38.2369310   6.5529310  77.5669310  39.3219310   7.1009310
  77.4149310  38.4789310   6.9299310  70.0169310  51.9799310  13.5849310
  69.7239310  51.7069310  12.7149310  69.7089310  52.8819310  13.6689310
  69.9399310  52.0599310  13.4839310  72.3889310  39.0429310  16.1559310
  73.1799310  39.0759310  15.6189310  72.0289310  39.9289310  16.1079310
  72.4439310  39.1599310  16.0809310  73.9319310  49.3439310  12.9829310
  73.3619310  50.0309310  13.3299310  73.4799310  48.5279310  13.1969310
  73.8009310  49.3279310  13.0549310  78.2349310  36.5489310   5.0559310
  78.0099310  37.3339310   5.5549310  79.1339310  36.7009310   4.7639310
  78.3219310  36.6689310   5.0829310  77.4899310  38.6839310  10.3409310
  76.6389310  38.2529310  10.2539310  77.5889310  38.8309310  11.2819310
  77.3929310  38.6479310  10.4499310  76.1209310  35.7049310  17.4919310
  75.5679310  36.0159310  18.2079310  76.1819310  36.4509310  16.8949310
  76.0579310  35.8399310  17.5069310  74.9119310  48.2179310   6.1769310
  74.2759310  47.7629310   6.7279310  74.4239310  48.9519310   5.8039310
  74.7689310  48.2539310   6.1999310  77.2019310  49.8589310  17.1639310
  76.8149310  49.4939310  16.3679310  76.5539310  50.4879310  17.4789310
  77.0689310  49.8919310  17.1029310  69.5619310  49.2129310  14.5329310
  69.1799310  50.0559310  14.7769310  70.3859310  49.4389310  14.1019310
  69.6179310  49.3499310  14.5089310  71.4649310  38.8389310   9.9549310
  71.3709310  38.3719310   9.1249310  72.2879310  38.5159310  10.3199310
  71.5579310  38.7379310   9.8959310  73.6279310  38.0969310  11.2109310
  74.0799310  37.5179310  11.8249310  74.1909310  38.1119310  10.4379310
  73.7579310  38.0249310  11.1909310  70.2099310  41.1969310  15.4799310
  69.6439310  41.5579310  14.7979310  69.7139310  41.3129310  16.2899310
  70.0739310  41.2579310  15.4959310  78.0259310  51.2409310   5.6259310
  77.7879310  50.4279310   6.0699310  77.2209310  51.5189310   5.1889310
  77.8929310  51.1729310   5.6269310  72.6269310  46.9549310  13.0549310
  72.1659310  47.2989310  12.2899310  72.7079310  46.0169310  12.8829310
  72.5779310  46.8789310  12.9349310  70.8229310  44.5959310   5.2399310
  71.7789310  44.6279310   5.2669310  70.5519310  45.5129310   5.2779310
  70.9109310  44.7169310   5.2479310  75.6629310  40.0549310  18.1829310
  74.8979310  39.6579310  18.6009310  75.4089310  40.9659310  18.0349310
  75.5319310  40.1209310  18.2179310  72.1819310  37.8859310   3.2109310
  72.4899310  37.9509310   4.1149310  71.2639310  37.6279310   3.2899310
  72.1039310  37.8609310   3.3369310  73.7829310  50.2829310   4.8269310
  73.0829310  50.6809310   4.3099310  74.2149310  49.6799310   4.2209310
  73.7489310  50.2569310   4.6829310  77.2019310  44.6099310   6.9679310
  77.7159310  44.0099310   6.4279310  76.9279310  45.2999310   6.3639310
  77.2319310  44.6209310   6.8219310  74.9779310  37.9939310   8.8789310
  74.7999310  38.5839310   8.1469310  75.4629310  37.2669310   8.4889310
  75.0169310  37.9769310   8.7359310  68.5829310  44.5839310   7.4559310
  69.1799310  44.8399310   6.7519310  68.8859310  45.0789310   8.2179310
  68.6979310  44.6799310   7.4629310  71.2639310  48.0909310  11.2609310
  71.5229310  48.7839310  10.6529310  70.3919310  48.3499310  11.5599310
  71.1859310  48.2129310  11.2209310  77.8819310  42.5919310  16.1469310
  77.1279310  42.2619310  15.6579310  77.6809310  42.3939310  17.0609310
  77.7599310  42.5239310  16.2009310  75.4039310  18.5119310  70.3179310
  75.6319310  18.4839310  71.2469310  74.7749310  17.7999310  70.2049310
  75.3529310  18.4169310  70.4229310  72.8029310  32.6979310  70.5779310
  71.8489310  32.6299310  70.5459310  72.9919310  33.0049310  71.4639310
  72.7049310  32.7289310  70.6869310  77.5679310  30.1419310  63.7409310
  77.3939310  30.3029310  64.6689310  76.8029310  29.6559310  63.4349310
  77.4479310  30.0999310  63.8209310  73.3199310  16.7979310  69.8239310
  72.7599310  17.2459310  70.4579310  73.1739310  15.8669310  69.9909310
  73.2299310  16.7359310  69.9259310  74.1389310  25.0389310  59.0719310
  73.9849310  25.4959310  59.8989310  74.8509310  24.4289310  59.2639310
  74.2099310  25.0189310  59.2019310  77.5339310  20.2479310  69.6769310
  76.9309310  19.6069310  70.0519310  78.3229310  20.1789310  70.2149310
  77.5579310  20.1579310  69.7939310  71.0259310  31.2949310  64.0349310
  71.0639310  32.1879310  63.6909310  70.2269310  31.2739310  64.5609310
  70.9289310  31.4069310  64.0579310  75.7369310  33.0849310  60.7239310
  74.9379310  32.5579310  60.7339310  76.0809310  32.9819310  59.8369310
  75.6789310  33.0039310  60.6119310  77.6119310  19.1209310  58.4329310
  77.3459310  18.6579310  59.2279310  77.6279310  18.4439310  57.7569310
  77.5799310  18.9749310  58.4489310  77.8469310  26.3089310  71.7169310
  77.7189310  25.4439310  72.1059310  78.2899310  26.1339310  70.8859310
  77.8869310  26.1759310  71.6599310  68.9709310  20.6389310  70.2739310
  69.2479310  21.2079310  70.9919310  68.3689310  20.0159310  70.6809310
  68.9299310  20.6319310  70.4179310  69.8439310  26.9759310  72.8669310
  68.9229310  26.7559310  72.7269310  69.9239310  27.0829310  73.8139310
  69.7359310  26.9609310  72.9699310  73.5459310  21.2449310  63.8439310
  73.1389310  21.2439310  62.9769310  73.0599310  21.9079310  64.3349310
  73.4319310  21.3299310  63.7959310  71.6649310  17.6409310  71.8619310
  71.8719310  18.5389310  72.1189310  71.3089310  17.2399310  72.6549310
  71.6459310  17.7039310  71.9959310  72.9729310  18.4319310  62.5619310
  72.2149310  18.4189310  63.1469310  73.5049310  17.6879310  62.8429310
  72.9439310  18.3349310  62.6729310  77.6329310  22.6309310  62.3929310
  76.8079310  22.6129310  61.9079310  77.3819310  22.4449310  63.2979310
  77.4949310  22.6049310  62.4469310  74.7469310  32.2959310  67.0099310
  74.4859310  31.9209310  67.8509310  75.4779310  31.7509310  66.7209310
  74.8069310  32.1779310  67.0799310  72.9849310  30.4889310  65.7249310
  72.2609310  30.7919310  65.1769310  73.5789310  31.2389310  65.7729310
  72.9689310  30.6239310  65.6609310  72.4579310  24.2529310  57.0629310
  71.8549310  24.9899310  56.9669310  73.0869310  24.5429310  57.7239310
  72.4609310  24.3839310  57.1349310  76.8849310  32.7149310  58.3559310
  77.3439310  31.8929310  58.5279310  77.5829310  33.3549310  58.2169310
  77.0329310  32.6919310  58.3599310  75.6079310  23.2059310  67.3379310
  76.4889310  23.4979310  67.5699310  75.6939310  22.8719310  66.4449310
  75.7319310  23.2009310  67.2529310  72.5799310  32.4509310  73.7219310
  72.3279310  33.3549310  73.9129310  73.4849310  32.3859310  74.0249310
  72.6639310  32.5589310  73.7849310  74.6129310  17.5239310  57.3729310
  74.9549310  17.5329310  58.2669310  74.1279310  18.3459310  57.2949310
  74.5949310  17.6309310  57.4769310  69.7819310  17.4399310  67.2769310
  70.6159310  17.8939310  67.1529310  69.1939310  17.8389310  66.6369310
  69.8139310  17.5489310  67.1799310  77.2159310  22.0349310  65.0269310
  77.3019310  21.2509310  65.5699310  77.6559310  22.7219310  65.5269310
  77.2829310  22.0229310  65.1599310  70.2909310  34.2569310  61.5459310
  69.5099310  34.1259310  61.0079310  70.2609310  35.1819310  61.7899310
  70.1869310  34.3589310  61.5079310  76.6439310  30.5229310  66.2359310
  76.1639310  29.7149310  66.4129310  77.3739310  30.5089310  66.8549310
  76.6759310  30.4179310  66.3379310  76.1869310  23.0239310  70.6229310
  75.3419310  22.7039310  70.9399310  76.6599310  22.2329310  70.3639310
  76.1389310  22.8819310  70.6309310  72.0219310  32.7819310  60.0799310
  71.4399310  33.2799310  60.6529310  72.2509310  33.3929310  59.3799310
  71.9769310  32.9239310  60.0639310  75.3759310  27.2499310  71.9849310
  76.2559310  26.8769310  71.9329310  74.8379310  26.6689310  71.4479310
  75.4199310  27.1279310  71.9099310  72.6589310  25.0849310  69.2599310
  72.2819310  24.9579310  70.1299310  72.0959310  24.5739310  68.6779310
  72.5389310  25.0039310  69.2969310  69.6489310  28.1609310  65.5359310
  70.0429310  28.0909310  64.6659310  70.2609310  27.7059310  66.1129310
  69.7779310  28.0939310  65.4979310  79.1199310  24.7049310  61.3869310
  78.4479310  24.0239310  61.4169310  79.1989310  24.9219310  60.4579310
  79.0439310  24.6459310  61.2719310  73.7849310  22.0059310  69.3019310
  73.1949310  21.2669310  69.1499310  74.3969310  21.9779310  68.5669310
  73.7879310  21.9079310  69.1879310  75.1699310  28.1979310  67.3339310
  75.1299310  27.2429310  67.2969310  74.7149310  28.4259310  68.1439310
  75.1069310  28.1049310  67.4329310  68.7529310  23.9529310  61.1529310
  69.4179310  24.5529310  61.4909310  67.9209310  24.3869310  61.3419310
  68.7319310  24.0849310  61.2209310  71.0859310  28.3979310  63.3549310
  71.7649310  28.1179310  63.9689310  71.1839310  29.3479310  63.3059310
  71.1849310  28.4839310  63.4279310  76.4999310  27.1339310  58.4419310
  76.1169310  26.8249310  57.6209310  76.7389310  28.0449310  58.2669310
  76.4819310  27.2109310  58.3149310  70.7559310  18.5889310  64.1199310
  70.5179310  17.7699310  63.6859310  69.9949310  19.1569310  63.9929310
  70.6279310  18.5569310  64.0479310  75.3269310  17.4039310  60.1239310
  75.5719310  16.5289310  60.4249310  75.1119310  17.8809310  60.9249310
  75.3309310  17.3529310  60.2649310  72.1649310  21.6689310  58.1579310
  71.2399310  21.4259310  58.1959310  72.1609310  22.5889310  57.8929310
  72.0469310  21.7559310  58.1289310  74.1339310  26.0219310  61.4469310
  74.9569310  26.5079310  61.4089310  74.1849310  25.5269310  62.2639310
  74.2459310  26.0209310  61.5459310  70.8249310  33.8969310  65.5229310
  70.2829310  34.3199310  66.1899310  71.7239310  34.0939310  65.7849310
  70.8699310  33.9769310  65.6419310  76.4289310  27.6589310  61.4489310
  75.9059310  28.3619310  61.8349310  76.4409310  27.8549310  60.5129310
  76.3639310  27.7739310  61.3789310  72.3659310  27.9619310  72.4429310
  72.3279310  28.2789310  71.5409310  71.4939310  27.6029310  72.6079310
  72.2489310  27.9559310  72.3489310  76.2739310  29.7019310  71.0179310
  75.4909310  30.1079310  70.6489310  75.9859310  28.8309310  71.2909310
  76.1369310  29.6419310  71.0059310  70.0119310  31.7139310  67.7609310
  70.6669310  32.0749310  67.1639310  69.3339310  31.3589310  67.1859310
  70.0089310  31.7149310  67.6109310  75.2999310  25.6589310  69.4969310
  75.6249310  24.8559310  69.9039310  74.4309310  25.4269310  69.1709310
  75.2299310  25.5269310  69.5069310  76.0369310  22.4869310  58.4669310
  75.5559310  21.6699310  58.3359310  76.4709310  22.6459310  57.6289310
  76.0309310  22.4029310  58.3429310  70.0009310  27.5239310  58.9249310
  70.7679310  27.2009310  59.3999310  69.2589310  27.2849310  59.4799310
  70.0039310  27.4519310  59.0569310  69.3389310  21.2799310  67.6209310
  70.1369310  20.9299310  67.2259310  69.3189310  20.8999310  68.4989310
  69.4379310  21.1859310  67.6829310  71.4239310  26.0669310  66.3339310
  72.3809310  26.0509310  66.3149310  71.1789310  25.2529310  66.7739310
  71.5149310  25.9609310  66.3879310  78.8009310  29.4299310  70.1819310
  79.1939310  30.2509310  70.4779310  77.8879310  29.4849310  70.4639310
  78.7349310  29.5419310  70.2559310  72.8249310  21.5909310  61.1559310
  72.7349310  21.3199310  60.2429310  71.9269310  21.7479310  61.4489310
  72.6979310  21.5769310  61.0769310  74.7709310  24.5069310  63.5559310
  74.9589310  23.7549310  62.9939310  75.6269310  24.8979310  63.7259310
  74.9039310  24.4609310  63.5059310  76.4269310  19.3669310  72.7959310
  77.3489310  19.4429310  73.0399310  75.9749310  19.9839310  73.3709310
  76.4869310  19.4549310  72.8999310  73.4179310  16.3769310  65.7149310
  73.5889310  17.2979310  65.9139310  73.9839310  15.8929310  66.3159310
  73.5119310  16.4329310  65.8169310  77.2209310  29.7139310  57.8389310
  78.0649310  29.6759310  58.2899310  77.4439310  29.9189310  56.9309310
  77.3579310  29.7349310  57.7809310  74.2719310  25.5039310  66.1079310
  74.5289310  25.0859310  65.2859310  74.3559310  24.8119310  66.7639310
  74.3159310  25.3619310  66.0869310  78.9739310  34.3729310  63.9059310
  78.7889310  33.5459310  63.4599310  78.6619310  35.0459310  63.3009310
  78.9099310  34.3529310  63.7709310  76.7639310  34.7529310  66.0789310
  76.7299310  34.0659310  66.7439310  77.2399310  34.3579310  65.3489310
  76.8199310  34.6149310  66.0709310  78.2749310  22.8619310  67.8829310
  77.8259310  22.1079310  68.2649310  78.9969310  22.4819310  67.3829310
  78.3099310  22.7169310  67.8679310  75.2979310  19.5989310  61.8659310
  75.1499310  20.5419310  61.7879310  74.5059310  19.2669310  62.2899310
  75.1779310  19.6769310  61.9099310  74.5539310  20.0879310  58.4609310
  73.6369310  19.8729310  58.6269310  75.0289310  19.6999310  59.1959310
  74.4969310  20.0109310  58.5759310  71.1959310  24.8339310  71.7319310
  70.5169310  25.4729310  71.9519310  70.7869310  23.9849310  71.8949310
  71.0559310  24.8069310  71.7809310  69.3439310  17.7429310  70.3139310
  70.2059310  17.7039310  70.7279310  69.5299310  17.8929310  69.3869310
  69.4779310  17.7569310  70.2479310  70.1589310  21.8149310  62.3439310
  70.5589310  22.3999310  62.9879310  69.6949310  22.3999310  61.7449310
  70.1509310  21.9649310  62.3499310  72.1189310  16.4939310  58.3889310
  72.1199310  17.2359310  58.9929310  72.6229310  16.7979310  57.6349310
  72.1839310  16.6279310  58.3699310  73.0349310  28.5299310  58.6729310
  73.1209310  28.4789310  57.7209310  72.4819310  29.2979310  58.8219310
  72.9749310  28.6219310  58.5699310  70.5489310  23.7509310  67.5319310
  69.7699310  24.2569310  67.7629310  70.2869310  22.8379310  67.6549310
  70.4159310  23.6989310  67.5769310  73.6449310  27.9079310  64.6379310
  73.5579310  28.6879310  65.1869310  73.7169310  27.1839310  65.2609310
  73.6429310  27.9149310  64.7879310  69.2759310  18.9919310  59.8429310
  69.2189310  18.7379310  58.9219310  68.7279310  19.7739310  59.9109310
  69.1989310  19.0599310  59.7339310  73.7469310  23.0489310  71.8219310
  73.6559310  22.9289310  70.8769310  73.0229310  23.6269310  72.0599310
  73.6429310  23.1079310  71.7309310  74.8289310  16.5649310  63.2739310
  74.4239310  16.2339310  64.0759310  74.9359310  15.7909310  62.7219310
  74.7909310  16.4239310  63.3059310  75.3719310  22.6109310  61.1599310
  75.7449310  22.5459310  60.2809310  74.4669310  22.3149310  61.0589310
  75.3039310  22.5639310  61.0349310  75.0709310  29.7679310  59.5939310
  74.3389310  29.2789310  59.2179310  75.7309310  29.7809310  58.9019310
  75.0609310  29.7069310  59.4579310  77.5169310  19.5079310  63.5449310
  76.6649310  19.3699310  63.1329310  77.5669310  20.4549310  63.6809310
  77.4149310  19.6119310  63.5099310  70.0169310  33.1129310  70.1649310
  69.7239310  32.8399310  69.2949310  69.7089310  34.0149310  70.2489310
  69.9399310  33.1929310  70.0639310  72.3889310  20.1759310  72.7359310
  73.1799310  20.2089310  72.1989310  72.0289310  21.0619310  72.6879310
  72.4439310  20.2929310  72.6609310  78.5619310  23.1789310  56.7839310
  78.5429310  23.8289310  57.4859310  78.9169310  22.3909310  57.1959310
  78.6049310  23.1619310  56.9259310  73.9319310  30.4769310  69.5629310
  73.3619310  31.1639310  69.9099310  73.4799310  29.6609310  69.7769310
  73.8009310  30.4609310  69.6349310  78.2349310  17.6819310  61.6359310
  78.0099310  18.4669310  62.1349310  79.1339310  17.8339310  61.3439310
  78.3219310  17.8019310  61.6629310  77.4899310  19.8169310  66.9209310
  76.6389310  19.3859310  66.8339310  77.5889310  19.9639310  67.8619310
  77.3929310  19.7809310  67.0299310  74.9119310  29.3509310  62.7569310
  74.2759310  28.8959310  63.3079310  74.4239310  30.0849310  62.3839310
  74.7689310  29.3869310  62.7799310  77.2019310  30.9919310  73.7439310
  76.8149310  30.6269310  72.9479310  76.5539310  31.6209310  74.0589310
  77.0689310  31.0249310  73.6829310  69.5619310  30.3459310  71.1129310
  69.1799310  31.1889310  71.3569310  70.3859310  30.5719310  70.6819310
  69.6179310  30.4829310  71.0889310  71.4649310  19.9719310  66.5349310
  71.3709310  19.5049310  65.7049310  72.2879310  19.6489310  66.8999310
  71.5579310  19.8709310  66.4759310  73.6279310  19.2299310  67.7909310
  74.0799310  18.6509310  68.4049310  74.1909310  19.2449310  67.0179310
  73.7579310  19.1579310  67.7709310  70.2099310  22.3299310  72.0599310
  69.6439310  22.6909310  71.3779310  69.7139310  22.4459310  72.8699310
  70.0739310  22.3909310  72.0759310  78.0259310  32.3739310  62.2059310
  77.7879310  31.5609310  62.6499310  77.2209310  32.6519310  61.7689310
  77.8929310  32.3059310  62.2069310  72.6269310  28.0879310  69.6349310
  72.1659310  28.4319310  68.8699310  72.7079310  27.1499310  69.4629310
  72.5779310  28.0119310  69.5149310  70.8229310  25.7289310  61.8199310
  71.7789310  25.7609310  61.8469310  70.5519310  26.6459310  61.8579310
  70.9109310  25.8499310  61.8279310  72.1819310  19.0189310  59.7909310
  72.4899310  19.0839310  60.6949310  71.2639310  18.7609310  59.8699310
  72.1039310  18.9939310  59.9169310  68.1109310  29.3319310  58.1359310
  68.7389310  28.8089310  58.6349310  68.6049310  29.6379310  57.3749310
  68.2549310  29.3039310  58.1029310  73.7829310  31.4159310  61.4069310
  73.0829310  31.8139310  60.8899310  74.2149310  30.8129310  60.8009310
  73.7489310  31.3899310  61.2629310  77.2019310  25.7429310  63.5479310
  77.7159310  25.1429310  63.0079310  76.9279310  26.4329310  62.9439310
  77.2319310  25.7539310  63.4019310  69.6889310  33.0979310  57.5939310
  70.2459310  32.3389310  57.7659310  70.2569310  33.8519310  57.7499310
  69.8329310  33.0969310  57.6359310  74.9779310  19.1269310  65.4589310
  74.7999310  19.7169310  64.7269310  75.4629310  18.3999310  65.0689310
  75.0169310  19.1099310  65.3159310  68.5829310  25.7169310  64.0359310
  69.1799310  25.9729310  63.3319310  68.8859310  26.2119310  64.7979310
  68.6979310  25.8129310  64.0429310  71.2639310  29.2239310  67.8409310
  71.5229310  29.9169310  67.2329310  70.3919310  29.4829310  68.1399310
  71.1859310  29.3459310  67.8009310  77.8819310  23.7249310  72.7269310
  77.1279310  23.3949310  72.2379310  77.6809310  23.5269310  73.6409310
  77.7599310  23.6569310  72.7809310  75.4039310  18.5119310  51.4579310
  75.6319310  18.4839310  52.3869310  74.7749310  17.7999310  51.3449310
  75.3529310  18.4169310  51.5629310  72.8029310  32.6979310  51.7179310
  71.8489310  32.6299310  51.6859310  72.9919310  33.0049310  52.6039310
  72.7049310  32.7289310  51.8269310  77.5679310  30.1419310  44.8809310
  77.3939310  30.3029310  45.8089310  76.8029310  29.6559310  44.5749310
  77.4479310  30.0999310  44.9609310  73.3199310  16.7979310  50.9639310
  72.7599310  17.2459310  51.5979310  73.1739310  15.8669310  51.1309310
  73.2299310  16.7359310  51.0659310  74.1389310  25.0389310  40.2119310
  73.9849310  25.4959310  41.0389310  74.8509310  24.4289310  40.4039310
  74.2099310  25.0189310  40.3419310  77.5339310  20.2479310  50.8169310
  76.9309310  19.6069310  51.1919310  78.3229310  20.1789310  51.3549310
  77.5579310  20.1579310  50.9339310  78.0719310  16.6849310  57.0949310
  78.9639310  16.4559310  56.8309310  77.5499310  16.5639310  56.3019310
  78.1199310  16.6409310  56.9599310  71.0259310  31.2949310  45.1749310
  71.0639310  32.1879310  44.8309310  70.2269310  31.2739310  45.7009310
  70.9289310  31.4069310  45.1979310  75.7369310  33.0849310  41.8639310
  74.9379310  32.5579310  41.8739310  76.0809310  32.9819310  40.9769310
  75.6789310  33.0039310  41.7519310  77.6119310  19.1209310  39.5729310
  77.3459310  18.6579310  40.3679310  77.6279310  18.4439310  38.8969310
  77.5799310  18.9749310  39.5889310  77.8469310  26.3089310  52.8569310
  77.7189310  25.4439310  53.2459310  78.2899310  26.1339310  52.0259310
  77.8869310  26.1759310  52.7999310  68.9709310  20.6389310  51.4139310
  69.2479310  21.2079310  52.1319310  68.3689310  20.0159310  51.8209310
  68.9299310  20.6319310  51.5579310  69.8439310  26.9759310  54.0069310
  68.9229310  26.7559310  53.8669310  69.9239310  27.0829310  54.9539310
  69.7359310  26.9609310  54.1099310  73.5459310  21.2449310  44.9839310
  73.1389310  21.2439310  44.1169310  73.0599310  21.9079310  45.4749310
  73.4319310  21.3299310  44.9359310  71.6649310  17.6409310  53.0019310
  71.8719310  18.5389310  53.2589310  71.3089310  17.2399310  53.7949310
  71.6459310  17.7039310  53.1359310  72.9729310  18.4319310  43.7019310
  72.2149310  18.4189310  44.2869310  73.5049310  17.6879310  43.9829310
  72.9439310  18.3349310  43.8129310  77.6329310  22.6309310  43.5329310
  76.8079310  22.6129310  43.0479310  77.3819310  22.4449310  44.4379310
  77.4949310  22.6049310  43.5869310  74.7469310  32.2959310  48.1499310
  74.4859310  31.9209310  48.9909310  75.4779310  31.7509310  47.8609310
  74.8069310  32.1779310  48.2199310  72.9849310  30.4889310  46.8649310
  72.2609310  30.7919310  46.3169310  73.5789310  31.2389310  46.9129310
  72.9689310  30.6239310  46.8009310  69.5339310  20.6429310  57.0549310
  69.3359310  20.7239310  56.1229310  68.7399310  20.9459310  57.4959310
  69.4069310  20.6919310  56.9919310  72.4579310  24.2529310  38.2029310
  71.8549310  24.9899310  38.1069310  73.0869310  24.5429310  38.8639310
  72.4609310  24.3839310  38.2749310  76.8849310  32.7149310  39.4959310
  77.3439310  31.8929310  39.6679310  77.5829310  33.3549310  39.3569310
  77.0329310  32.6919310  39.4999310  75.6079310  23.2059310  48.4779310
  76.4889310  23.4979310  48.7099310  75.6939310  22.8719310  47.5849310
  75.7319310  23.2009310  48.3929310  69.5019310  29.6689310  55.8119310
  68.7399310  30.2369310  55.6949310  69.7069310  29.3589310  54.9299310
  69.4299310  29.7019310  55.6839310  71.5729310  30.9639310  57.1489310
  72.0559310  31.5249310  56.5419310  71.1299310  30.3279310  56.5879310
  71.5779310  30.9549310  56.9999310  75.1989310  32.6999310  55.9469310
  75.7729310  32.6129310  56.7079310  75.1569310  33.6419310  55.7849310
  75.2669310  32.8089310  56.0229310  75.5539310  26.5539310  55.8479310
  75.3969310  25.6099310  55.8119310  75.4649310  26.8459310  54.9409310
  75.5219310  26.4699310  55.7269310  72.5799310  32.4509310  54.8619310
  72.3279310  33.3549310  55.0529310  73.4849310  32.3859310  55.1649310
  72.6639310  32.5589310  54.9249310  74.6129310  17.5239310  38.5129310
  74.9549310  17.5329310  39.4069310  74.1279310  18.3459310  38.4349310
  74.5949310  17.6309310  38.6169310  69.7819310  17.4399310  48.4169310
  70.6159310  17.8939310  48.2929310  69.1939310  17.8389310  47.7769310
  69.8139310  17.5489310  48.3199310  70.8809310  16.5729310  55.4289310
  70.0479310  16.1459310  55.6299310  70.8479310  17.3999310  55.9089310
  70.7699310  16.6239310  55.5159310  77.2159310  22.0349310  46.1669310
  77.3019310  21.2509310  46.7099310  77.6559310  22.7219310  46.6669310
  77.2829310  22.0229310  46.2999310  70.2909310  34.2569310  42.6859310
  69.5099310  34.1259310  42.1479310  70.2609310  35.1819310  42.9299310
  70.1869310  34.3589310  42.6479310  76.6439310  30.5229310  47.3759310
  76.1639310  29.7149310  47.5529310  77.3739310  30.5089310  47.9949310
  76.6759310  30.4179310  47.4779310  76.1869310  23.0239310  51.7629310
  75.3419310  22.7039310  52.0799310  76.6599310  22.2329310  51.5039310
  76.1389310  22.8819310  51.7709310  73.1139310  28.2099310  56.0969310
  73.9249310  27.7219310  55.9549310  72.8449310  28.4869310  55.2209310
  73.1829310  28.1829310  55.9659310  72.0219310  32.7819310  41.2199310
  71.4399310  33.2799310  41.7929310  72.2509310  33.3929310  40.5199310
  71.9769310  32.9239310  41.2039310  75.3759310  27.2499310  53.1249310
  76.2559310  26.8769310  53.0729310  74.8379310  26.6689310  52.5879310
  75.4199310  27.1279310  53.0499310  72.6589310  25.0849310  50.3999310
  72.2819310  24.9579310  51.2699310  72.0959310  24.5739310  49.8179310
  72.5389310  25.0039310  50.4369310  69.6489310  28.1609310  46.6759310
  70.0429310  28.0909310  45.8059310  70.2609310  27.7059310  47.2529310
  69.7779310  28.0939310  46.6379310  79.1199310  24.7049310  42.5269310
  78.4479310  24.0239310  42.5569310  79.1989310  24.9219310  41.5979310
  79.0439310  24.6459310  42.4119310  72.8069310  19.5579310  56.4899310
  72.6539310  19.8379310  55.5879310  72.5699310  20.3179310  57.0209310
  72.7569310  19.6909310  56.4429310  74.7399310  23.6789310  55.5959310
  74.6249310  23.3949310  54.6889310  73.8489310  23.7819310  55.9289310
  74.6109310  23.6559310  55.5219310  73.7849310  22.0059310  50.4419310
  73.1949310  21.2669310  50.2899310  74.3969310  21.9779310  49.7069310
  73.7879310  21.9079310  50.3279310  75.1699310  28.1979310  48.4739310
  75.1299310  27.2429310  48.4369310  74.7149310  28.4259310  49.2839310
  75.1069310  28.1049310  48.5729310  68.7529310  23.9529310  42.2929310
  69.4179310  24.5529310  42.6309310  67.9209310  24.3869310  42.4819310
  68.7319310  24.0849310  42.3609310  71.0859310  28.3979310  44.4949310
  71.7649310  28.1179310  45.1089310  71.1839310  29.3479310  44.4459310
  71.1849310  28.4839310  44.5679310  76.4999310  27.1339310  39.5819310
  76.1169310  26.8249310  38.7609310  76.7389310  28.0449310  39.4069310
  76.4819310  27.2109310  39.4549310  70.7559310  18.5889310  45.2599310
  70.5179310  17.7699310  44.8259310  69.9949310  19.1569310  45.1329310
  70.6279310  18.5569310  45.1879310  75.3269310  17.4039310  41.2639310
  75.5719310  16.5289310  41.5649310  75.1119310  17.8809310  42.0649310
  75.3309310  17.3529310  41.4049310  72.1649310  21.6689310  39.2979310
  71.2399310  21.4259310  39.3359310  72.1609310  22.5889310  39.0329310
  72.0469310  21.7559310  39.2689310  74.1339310  26.0219310  42.5869310
  74.9569310  26.5079310  42.5489310  74.1849310  25.5269310  43.4039310
  74.2459310  26.0209310  42.6859310  70.8249310  33.8969310  46.6629310
  70.2829310  34.3199310  47.3299310  71.7239310  34.0939310  46.9249310
  70.8699310  33.9769310  46.7819310  76.4289310  27.6589310  42.5889310
  75.9059310  28.3619310  42.9749310  76.4409310  27.8549310  41.6529310
  76.3639310  27.7739310  42.5189310  72.3659310  27.9619310  53.5829310
  72.3279310  28.2789310  52.6809310  71.4939310  27.6029310  53.7479310
  72.2489310  27.9559310  53.4889310  76.2739310  29.7019310  52.1579310
  75.4909310  30.1079310  51.7889310  75.9859310  28.8309310  52.4309310
  76.1369310  29.6419310  52.1459310  70.0119310  31.7139310  48.9009310
  70.6669310  32.0749310  48.3039310  69.3339310  31.3589310  48.3259310
  70.0089310  31.7149310  48.7509310  75.2999310  25.6589310  50.6369310
  75.6249310  24.8559310  51.0439310  74.4309310  25.4269310  50.3109310
  75.2299310  25.5269310  50.6469310  70.9159310  26.5929310  56.6059310
  71.7189310  27.1029310  56.4959310  70.4659310  27.0109310  57.3399310
  70.9609310  26.7119310  56.6859310  76.0369310  22.4869310  39.6069310
  75.5559310  21.6699310  39.4759310  76.4709310  22.6459310  38.7689310
  76.0309310  22.4029310  39.4829310  70.0009310  27.5239310  40.0649310
  70.7679310  27.2009310  40.5399310  69.2589310  27.2849310  40.6199310
  70.0039310  27.4519310  40.1969310  69.3389310  21.2799310  48.7609310
  70.1369310  20.9299310  48.3659310  69.3189310  20.8999310  49.6389310
  69.4379310  21.1859310  48.8229310  71.4239310  26.0669310  47.4739310
  72.3809310  26.0509310  47.4549310  71.1789310  25.2529310  47.9139310
  71.5149310  25.9609310  47.5279310  78.8009310  29.4299310  51.3219310
  79.1939310  30.2509310  51.6179310  77.8879310  29.4849310  51.6039310
  78.7349310  29.5419310  51.3959310  72.8249310  21.5909310  42.2959310
  72.7349310  21.3199310  41.3829310  71.9269310  21.7479310  42.5889310
  72.6979310  21.5769310  42.2169310  74.7709310  24.5069310  44.6959310
  74.9589310  23.7549310  44.1339310  75.6269310  24.8979310  44.8659310
  74.9039310  24.4609310  44.6459310  76.4269310  19.3669310  53.9359310
  77.3489310  19.4429310  54.1799310  75.9749310  19.9839310  54.5109310
  76.4869310  19.4549310  54.0399310  73.4179310  16.3769310  46.8549310
  73.5889310  17.2979310  47.0539310  73.9839310  15.8929310  47.4559310
  73.5119310  16.4329310  46.9569310  77.2209310  29.7139310  38.9789310
  78.0649310  29.6759310  39.4299310  77.4439310  29.9189310  38.0709310
  77.3579310  29.7349310  38.9209310  74.2719310  25.5039310  47.2479310
  74.5289310  25.0859310  46.4259310  74.3559310  24.8119310  47.9039310
  74.3159310  25.3619310  47.2269310  78.9739310  34.3729310  45.0459310
  78.7889310  33.5459310  44.5999310  78.6619310  35.0459310  44.4409310
  78.9099310  34.3529310  44.9109310  76.7639310  34.7529310  47.2189310
  76.7299310  34.0659310  47.8839310  77.2399310  34.3579310  46.4889310
  76.8199310  34.6149310  47.2109310  78.2749310  22.8619310  49.0229310
  77.8259310  22.1079310  49.4049310  78.9969310  22.4819310  48.5229310
  78.3099310  22.7169310  49.0079310  75.2979310  19.5989310  43.0059310
  75.1499310  20.5419310  42.9279310  74.5059310  19.2669310  43.4299310
  75.1779310  19.6769310  43.0499310  74.5539310  20.0879310  39.6009310
  73.6369310  19.8729310  39.7669310  75.0289310  19.6999310  40.3359310
  74.4969310  20.0109310  39.7159310  71.1959310  24.8339310  52.8719310
  70.5169310  25.4729310  53.0919310  70.7869310  23.9849310  53.0349310
  71.0559310  24.8069310  52.9209310  69.3439310  17.7429310  51.4539310
  70.2059310  17.7039310  51.8679310  69.5299310  17.8929310  50.5269310
  69.4779310  17.7569310  51.3879310  68.8029310  22.9139310  55.4409310
  68.2029310  23.6469310  55.5819310  69.3499310  22.8969310  56.2269310
  68.7959310  23.0059310  55.5599310  70.1589310  21.8149310  43.4839310
  70.5589310  22.3999310  44.1279310  69.6949310  22.3999310  42.8849310
  70.1509310  21.9649310  43.4899310  72.1189310  16.4939310  39.5289310
  72.1199310  17.2359310  40.1329310  72.6229310  16.7979310  38.7749310
  72.1839310  16.6279310  39.5099310  73.0349310  28.5299310  39.8129310
  73.1209310  28.4789310  38.8609310  72.4819310  29.2979310  39.9619310
  72.9749310  28.6219310  39.7099310  70.5489310  23.7509310  48.6719310
  69.7699310  24.2569310  48.9029310  70.2869310  22.8379310  48.7949310
  70.4159310  23.6989310  48.7169310  73.6449310  27.9079310  45.7779310
  73.5579310  28.6879310  46.3269310  73.7169310  27.1839310  46.4009310
  73.6429310  27.9149310  45.9279310  69.2759310  18.9919310  40.9829310
  69.2189310  18.7379310  40.0619310  68.7279310  19.7739310  41.0509310
  69.1989310  19.0599310  40.8739310  73.7469310  23.0489310  52.9619310
  73.6559310  22.9289310  52.0169310  73.0229310  23.6269310  53.1999310
  73.6429310  23.1079310  52.8709310  74.8289310  16.5649310  44.4139310
  74.4239310  16.2339310  45.2159310  74.9359310  15.7909310  43.8619310
  74.7909310  16.4239310  44.4459310  75.3719310  22.6109310  42.2999310
  75.7449310  22.5459310  41.4209310  74.4669310  22.3149310  42.1989310
  75.3039310  22.5639310  42.1749310  75.0709310  29.7679310  40.7339310
  74.3389310  29.2789310  40.3579310  75.7309310  29.7809310  40.0419310
  75.0609310  29.7069310  40.5979310  77.5169310  19.5079310  44.6849310
  76.6649310  19.3699310  44.2729310  77.5669310  20.4549310  44.8209310
  77.4149310  19.6119310  44.6499310  70.0169310  33.1129310  51.3049310
  69.7239310  32.8399310  50.4349310  69.7089310  34.0149310  51.3889310
  69.9399310  33.1929310  51.2039310  72.3889310  20.1759310  53.8759310
  73.1799310  20.2089310  53.3389310  72.0289310  21.0619310  53.8279310
  72.4439310  20.2929310  53.8009310  78.5619310  23.1789310  37.9239310
  78.5429310  23.8289310  38.6259310  78.9169310  22.3909310  38.3359310
  78.6049310  23.1619310  38.0659310  73.9319310  30.4769310  50.7029310
  73.3619310  31.1639310  51.0499310  73.4799310  29.6609310  50.9169310
  73.8009310  30.4609310  50.7749310  78.2349310  17.6819310  42.7759310
  78.0099310  18.4669310  43.2749310  79.1339310  17.8339310  42.4839310
  78.3219310  17.8019310  42.8029310  77.4899310  19.8169310  48.0609310
  76.6389310  19.3859310  47.9739310  77.5889310  19.9639310  49.0019310
  77.3929310  19.7809310  48.1699310  76.1209310  16.8379310  55.2119310
  75.5679310  17.1489310  55.9279310  76.1819310  17.5839310  54.6149310
  76.0579310  16.9729310  55.2269310  74.9119310  29.3509310  43.8969310
  74.2759310  28.8959310  44.4479310  74.4239310  30.0849310  43.5239310
  74.7689310  29.3869310  43.9199310  77.2019310  30.9919310  54.8839310
  76.8149310  30.6269310  54.0879310  76.5539310  31.6209310  55.1989310
  77.0689310  31.0249310  54.8229310  69.5619310  30.3459310  52.2529310
  69.1799310  31.1889310  52.4969310  70.3859310  30.5719310  51.8219310
  69.6179310  30.4829310  52.2289310  71.4649310  19.9719310  47.6749310
  71.3709310  19.5049310  46.8449310  72.2879310  19.6489310  48.0399310
  71.5579310  19.8709310  47.6159310  73.6279310  19.2299310  48.9309310
  74.0799310  18.6509310  49.5449310  74.1909310  19.2449310  48.1579310
  73.7579310  19.1579310  48.9109310  70.2099310  22.3299310  53.1999310
  69.6439310  22.6909310  52.5179310  69.7139310  22.4459310  54.0099310
  70.0739310  22.3909310  53.2159310  78.0259310  32.3739310  43.3459310
  77.7879310  31.5609310  43.7899310  77.2209310  32.6519310  42.9089310
  77.8929310  32.3059310  43.3469310  72.6269310  28.0879310  50.7749310
  72.1659310  28.4319310  50.0099310  72.7079310  27.1499310  50.6029310
  72.5779310  28.0119310  50.6549310  70.8229310  25.7289310  42.9599310
  71.7789310  25.7609310  42.9869310  70.5519310  26.6459310  42.9979310
  70.9109310  25.8499310  42.9679310  75.6629310  21.1879310  55.9029310
  74.8979310  20.7909310  56.3209310  75.4089310  22.0989310  55.7549310
  75.5319310  21.2539310  55.9379310  72.1819310  19.0189310  40.9309310
  72.4899310  19.0839310  41.8349310  71.2639310  18.7609310  41.0099310
  72.1039310  18.9939310  41.0569310  68.1109310  29.3319310  39.2759310
  68.7389310  28.8089310  39.7749310  68.6049310  29.6379310  38.5149310
  68.2549310  29.3039310  39.2429310  73.7829310  31.4159310  42.5469310
  73.0829310  31.8139310  42.0299310  74.2149310  30.8129310  41.9409310
  73.7489310  31.3899310  42.4029310  77.2019310  25.7429310  44.6879310
  77.7159310  25.1429310  44.1479310  76.9279310  26.4329310  44.0839310
  77.2319310  25.7539310  44.5419310  69.6889310  33.0979310  38.7339310
  70.2459310  32.3389310  38.9059310  70.2569310  33.8519310  38.8899310
  69.8329310  33.0969310  38.7759310  74.9779310  19.1269310  46.5989310
  74.7999310  19.7169310  45.8669310  75.4629310  18.3999310  46.2089310
  75.0169310  19.1099310  46.4559310  68.5829310  25.7169310  45.1759310
  69.1799310  25.9729310  44.4719310  68.8859310  26.2119310  45.9379310
  68.6979310  25.8129310  45.1829310  71.2639310  29.2239310  48.9809310
  71.5229310  29.9169310  48.3729310  70.3919310  29.4829310  49.2799310
  71.1859310  29.3459310  48.9409310  77.8819310  23.7249310  53.8669310
  77.1279310  23.3949310  53.3779310  77.6809310  23.5269310  54.7809310
  77.7599310  23.6569310  53.9209310  75.4039310  18.5119310  32.5979310
  75.6319310  18.4839310  33.5269310  74.7749310  17.7999310  32.4849310
  75.3529310  18.4169310  32.7029310  72.8029310  32.6979310  32.8579310
  71.8489310  32.6299310  32.8259310  72.9919310  33.0049310  33.7439310
  72.7049310  32.7289310  32.9669310  77.5679310  30.1419310  26.0209310
  77.3939310  30.3029310  26.9489310  76.8029310  29.6559310  25.7149310
  77.4479310  30.0999310  26.1009310  73.3199310  16.7979310  32.1039310
  72.7599310  17.2459310  32.7379310  73.1739310  15.8669310  32.2709310
  73.2299310  16.7359310  32.2059310  74.1389310  25.0389310  21.3519310
  73.9849310  25.4959310  22.1789310  74.8509310  24.4289310  21.5439310
  74.2099310  25.0189310  21.4819310  77.5339310  20.2479310  31.9569310
  76.9309310  19.6069310  32.3319310  78.3229310  20.1789310  32.4949310
  77.5579310  20.1579310  32.0739310  78.0719310  16.6849310  38.2349310
  78.9639310  16.4559310  37.9709310  77.5499310  16.5639310  37.4419310
  78.1199310  16.6409310  38.0999310  71.0259310  31.2949310  26.3149310
  71.0639310  32.1879310  25.9709310  70.2269310  31.2739310  26.8409310
  70.9289310  31.4069310  26.3379310  75.7369310  33.0849310  23.0039310
  74.9379310  32.5579310  23.0139310  76.0809310  32.9819310  22.1169310
  75.6789310  33.0039310  22.8919310  77.6119310  19.1209310  20.7129310
  77.3459310  18.6579310  21.5079310  77.6279310  18.4439310  20.0369310
  77.5799310  18.9749310  20.7289310  77.8469310  26.3089310  33.9969310
  77.7189310  25.4439310  34.3859310  78.2899310  26.1339310  33.1659310
  77.8869310  26.1759310  33.9399310  68.9709310  20.6389310  32.5539310
  69.2479310  21.2079310  33.2719310  68.3689310  20.0159310  32.9609310
  68.9299310  20.6319310  32.6979310  69.8439310  26.9759310  35.1469310
  68.9229310  26.7559310  35.0069310  69.9239310  27.0829310  36.0939310
  69.7359310  26.9609310  35.2499310  73.5459310  21.2449310  26.1239310
  73.1389310  21.2439310  25.2569310  73.0599310  21.9079310  26.6149310
  73.4319310  21.3299310  26.0759310  71.6649310  17.6409310  34.1419310
  71.8719310  18.5389310  34.3989310  71.3089310  17.2399310  34.9349310
  71.6459310  17.7039310  34.2759310  72.9729310  18.4319310  24.8419310
  72.2149310  18.4189310  25.4269310  73.5049310  17.6879310  25.1229310
  72.9439310  18.3349310  24.9529310  77.6329310  22.6309310  24.6729310
  76.8079310  22.6129310  24.1879310  77.3819310  22.4449310  25.5779310
  77.4949310  22.6049310  24.7269310  74.7469310  32.2959310  29.2899310
  74.4859310  31.9209310  30.1309310  75.4779310  31.7509310  29.0009310
  74.8069310  32.1779310  29.3599310  72.9849310  30.4889310  28.0049310
  72.2609310  30.7919310  27.4569310  73.5789310  31.2389310  28.0529310
  72.9689310  30.6239310  27.9409310  69.5339310  20.6429310  38.1949310
  69.3359310  20.7239310  37.2629310  68.7399310  20.9459310  38.6359310
  69.4069310  20.6919310  38.1319310  72.4579310  24.2529310  19.3429310
  71.8549310  24.9899310  19.2469310  73.0869310  24.5429310  20.0039310
  72.4609310  24.3839310  19.4149310  76.8849310  32.7149310  20.6359310
  77.3439310  31.8929310  20.8079310  77.5829310  33.3549310  20.4969310
  77.0329310  32.6919310  20.6399310  75.6079310  23.2059310  29.6179310
  76.4889310  23.4979310  29.8499310  75.6939310  22.8719310  28.7249310
  75.7319310  23.2009310  29.5329310  69.5019310  29.6689310  36.9519310
  68.7399310  30.2369310  36.8349310  69.7069310  29.3589310  36.0699310
  69.4299310  29.7019310  36.8239310  71.5729310  30.9639310  38.2889310
  72.0559310  31.5249310  37.6819310  71.1299310  30.3279310  37.7279310
  71.5779310  30.9549310  38.1399310  75.1989310  32.6999310  37.0869310
  75.7729310  32.6129310  37.8479310  75.1569310  33.6419310  36.9249310
  75.2669310  32.8089310  37.1629310  75.5539310  26.5539310  36.9879310
  75.3969310  25.6099310  36.9519310  75.4649310  26.8459310  36.0809310
  75.5219310  26.4699310  36.8669310  72.5799310  32.4509310  36.0019310
  72.3279310  33.3549310  36.1929310  73.4849310  32.3859310  36.3049310
  72.6639310  32.5589310  36.0649310  74.6129310  17.5239310  19.6529310
  74.9549310  17.5329310  20.5469310  74.1279310  18.3459310  19.5749310
  74.5949310  17.6309310  19.7569310  69.7819310  17.4399310  29.5569310
  70.6159310  17.8939310  29.4329310  69.1939310  17.8389310  28.9169310
  69.8139310  17.5489310  29.4599310  70.8809310  16.5729310  36.5689310
  70.0479310  16.1459310  36.7699310  70.8479310  17.3999310  37.0489310
  70.7699310  16.6239310  36.6559310  77.2159310  22.0349310  27.3069310
  77.3019310  21.2509310  27.8499310  77.6559310  22.7219310  27.8069310
  77.2829310  22.0229310  27.4399310  70.2909310  34.2569310  23.8259310
  69.5099310  34.1259310  23.2879310  70.2609310  35.1819310  24.0699310
  70.1869310  34.3589310  23.7879310  76.6439310  30.5229310  28.5159310
  76.1639310  29.7149310  28.6929310  77.3739310  30.5089310  29.1349310
  76.6759310  30.4179310  28.6179310  76.1869310  23.0239310  32.9029310
  75.3419310  22.7039310  33.2199310  76.6599310  22.2329310  32.6439310
  76.1389310  22.8819310  32.9109310  73.1139310  28.2099310  37.2369310
  73.9249310  27.7219310  37.0949310  72.8449310  28.4869310  36.3609310
  73.1829310  28.1829310  37.1059310  72.0219310  32.7819310  22.3599310
  71.4399310  33.2799310  22.9329310  72.2509310  33.3929310  21.6599310
  71.9769310  32.9239310  22.3439310  75.3759310  27.2499310  34.2649310
  76.2559310  26.8769310  34.2129310  74.8379310  26.6689310  33.7279310
  75.4199310  27.1279310  34.1899310  72.6589310  25.0849310  31.5399310
  72.2819310  24.9579310  32.4099310  72.0959310  24.5739310  30.9579310
  72.5389310  25.0039310  31.5769310  69.6489310  28.1609310  27.8159310
  70.0429310  28.0909310  26.9459310  70.2609310  27.7059310  28.3929310
  69.7779310  28.0939310  27.7779310  79.1199310  24.7049310  23.6669310
  78.4479310  24.0239310  23.6969310  79.1989310  24.9219310  22.7379310
  79.0439310  24.6459310  23.5519310  72.8069310  19.5579310  37.6299310
  72.6539310  19.8379310  36.7279310  72.5699310  20.3179310  38.1609310
  72.7569310  19.6909310  37.5829310  74.7399310  23.6789310  36.7359310
  74.6249310  23.3949310  35.8289310  73.8489310  23.7819310  37.0689310
  74.6109310  23.6559310  36.6619310  73.7849310  22.0059310  31.5819310
  73.1949310  21.2669310  31.4299310  74.3969310  21.9779310  30.8469310
  73.7879310  21.9079310  31.4679310  75.1699310  28.1979310  29.6139310
  75.1299310  27.2429310  29.5769310  74.7149310  28.4259310  30.4239310
  75.1069310  28.1049310  29.7129310  68.7529310  23.9529310  23.4329310
  69.4179310  24.5529310  23.7709310  67.9209310  24.3869310  23.6219310
  68.7319310  24.0849310  23.5009310  71.0859310  28.3979310  25.6349310
  71.7649310  28.1179310  26.2489310  71.1839310  29.3479310  25.5859310
  71.1849310  28.4839310  25.7079310  76.4999310  27.1339310  20.7219310
  76.1169310  26.8249310  19.9009310  76.7389310  28.0449310  20.5469310
  76.4819310  27.2109310  20.5949310  70.7559310  18.5889310  26.3999310
  70.5179310  17.7699310  25.9659310  69.9949310  19.1569310  26.2729310
  70.6279310  18.5569310  26.3279310  75.3269310  17.4039310  22.4039310
  75.5719310  16.5289310  22.7049310  75.1119310  17.8809310  23.2049310
  75.3309310  17.3529310  22.5449310  72.1649310  21.6689310  20.4379310
  71.2399310  21.4259310  20.4759310  72.1609310  22.5889310  20.1729310
  72.0469310  21.7559310  20.4089310  74.1339310  26.0219310  23.7269310
  74.9569310  26.5079310  23.6889310  74.1849310  25.5269310  24.5439310
  74.2459310  26.0209310  23.8259310  70.8249310  33.8969310  27.8029310
  70.2829310  34.3199310  28.4699310  71.7239310  34.0939310  28.0649310
  70.8699310  33.9769310  27.9219310  76.4289310  27.6589310  23.7289310
  75.9059310  28.3619310  24.1149310  76.4409310  27.8549310  22.7929310
  76.3639310  27.7739310  23.6589310  72.3659310  27.9619310  34.7229310
  72.3279310  28.2789310  33.8209310  71.4939310  27.6029310  34.8879310
  72.2489310  27.9559310  34.6289310  76.2739310  29.7019310  33.2979310
  75.4909310  30.1079310  32.9289310  75.9859310  28.8309310  33.5709310
  76.1369310  29.6419310  33.2859310  70.0119310  31.7139310  30.0409310
  70.6669310  32.0749310  29.4439310  69.3339310  31.3589310  29.4659310
  70.0089310  31.7149310  29.8909310  75.2999310  25.6589310  31.7769310
  75.6249310  24.8559310  32.1839310  74.4309310  25.4269310  31.4509310
  75.2299310  25.5269310  31.7869310  70.9159310  26.5929310  37.7459310
  71.7189310  27.1029310  37.6359310  70.4659310  27.0109310  38.4799310
  70.9609310  26.7119310  37.8259310  76.0369310  22.4869310  20.7469310
  75.5559310  21.6699310  20.6159310  76.4709310  22.6459310  19.9089310
  76.0309310  22.4029310  20.6229310  70.0009310  27.5239310  21.2049310
  70.7679310  27.2009310  21.6799310  69.2589310  27.2849310  21.7599310
  70.0039310  27.4519310  21.3369310  69.3389310  21.2799310  29.9009310
  70.1369310  20.9299310  29.5059310  69.3189310  20.8999310  30.7789310
  69.4379310  21.1859310  29.9629310  71.4239310  26.0669310  28.6139310
  72.3809310  26.0509310  28.5949310  71.1789310  25.2529310  29.0539310
  71.5149310  25.9609310  28.6679310  78.8009310  29.4299310  32.4619310
  79.1939310  30.2509310  32.7579310  77.8879310  29.4849310  32.7439310
  78.7349310  29.5419310  32.5359310  72.8249310  21.5909310  23.4359310
  72.7349310  21.3199310  22.5229310  71.9269310  21.7479310  23.7289310
  72.6979310  21.5769310  23.3569310  74.7709310  24.5069310  25.8359310
  74.9589310  23.7549310  25.2739310  75.6269310  24.8979310  26.0059310
  74.9039310  24.4609310  25.7859310  76.4269310  19.3669310  35.0759310
  77.3489310  19.4429310  35.3199310  75.9749310  19.9839310  35.6509310
  76.4869310  19.4549310  35.1799310  73.4179310  16.3769310  27.9949310
  73.5889310  17.2979310  28.1939310  73.9839310  15.8929310  28.5959310
  73.5119310  16.4329310  28.0969310  77.2209310  29.7139310  20.1189310
  78.0649310  29.6759310  20.5699310  77.4439310  29.9189310  19.2109310
  77.3579310  29.7349310  20.0609310  74.2719310  25.5039310  28.3879310
  74.5289310  25.0859310  27.5659310  74.3559310  24.8119310  29.0439310
  74.3159310  25.3619310  28.3669310  78.9739310  34.3729310  26.1859310
  78.7889310  33.5459310  25.7399310  78.6619310  35.0459310  25.5809310
  78.9099310  34.3529310  26.0509310  76.7639310  34.7529310  28.3589310
  76.7299310  34.0659310  29.0239310  77.2399310  34.3579310  27.6289310
  76.8199310  34.6149310  28.3509310  78.2749310  22.8619310  30.1629310
  77.8259310  22.1079310  30.5449310  78.9969310  22.4819310  29.6629310
  78.3099310  22.7169310  30.1479310  75.2979310  19.5989310  24.1459310
  75.1499310  20.5419310  24.0679310  74.5059310  19.2669310  24.5699310
  75.1779310  19.6769310  24.1899310  74.5539310  20.0879310  20.7409310
  73.6369310  19.8729310  20.9069310  75.0289310  19.6999310  21.4759310
  74.4969310  20.0109310  20.8559310  71.1959310  24.8339310  34.0119310
  70.5169310  25.4729310  34.2319310  70.7869310  23.9849310  34.1749310
  71.0559310  24.8069310  34.0609310  69.3439310  17.7429310  32.5939310
  70.2059310  17.7039310  33.0079310  69.5299310  17.8929310  31.6669310
  69.4779310  17.7569310  32.5279310  68.8029310  22.9139310  36.5809310
  68.2029310  23.6469310  36.7219310  69.3499310  22.8969310  37.3669310
  68.7959310  23.0059310  36.6999310  70.1589310  21.8149310  24.6239310
  70.5589310  22.3999310  25.2679310  69.6949310  22.3999310  24.0249310
  70.1509310  21.9649310  24.6299310  72.1189310  16.4939310  20.6689310
  72.1199310  17.2359310  21.2729310  72.6229310  16.7979310  19.9149310
  72.1839310  16.6279310  20.6499310  73.0349310  28.5299310  20.9529310
  73.1209310  28.4789310  20.0009310  72.4819310  29.2979310  21.1019310
  72.9749310  28.6219310  20.8499310  70.5489310  23.7509310  29.8119310
  69.7699310  24.2569310  30.0429310  70.2869310  22.8379310  29.9349310
  70.4159310  23.6989310  29.8569310  73.6449310  27.9079310  26.9179310
  73.5579310  28.6879310  27.4669310  73.7169310  27.1839310  27.5409310
  73.6429310  27.9149310  27.0679310  69.2759310  18.9919310  22.1229310
  69.2189310  18.7379310  21.2019310  68.7279310  19.7739310  22.1909310
  69.1989310  19.0599310  22.0139310  73.7469310  23.0489310  34.1019310
  73.6559310  22.9289310  33.1569310  73.0229310  23.6269310  34.3399310
  73.6429310  23.1079310  34.0109310  74.8289310  16.5649310  25.5539310
  74.4239310  16.2339310  26.3559310  74.9359310  15.7909310  25.0019310
  74.7909310  16.4239310  25.5859310  75.3719310  22.6109310  23.4399310
  75.7449310  22.5459310  22.5609310  74.4669310  22.3149310  23.3389310
  75.3039310  22.5639310  23.3149310  75.0709310  29.7679310  21.8739310
  74.3389310  29.2789310  21.4979310  75.7309310  29.7809310  21.1819310
  75.0609310  29.7069310  21.7379310  77.5169310  19.5079310  25.8249310
  76.6649310  19.3699310  25.4129310  77.5669310  20.4549310  25.9609310
  77.4149310  19.6119310  25.7899310  70.0169310  33.1129310  32.4449310
  69.7239310  32.8399310  31.5749310  69.7089310  34.0149310  32.5289310
  69.9399310  33.1929310  32.3439310  72.3889310  20.1759310  35.0159310
  73.1799310  20.2089310  34.4789310  72.0289310  21.0619310  34.9679310
  72.4439310  20.2929310  34.9409310  78.5619310  23.1789310  19.0639310
  78.5429310  23.8289310  19.7659310  78.9169310  22.3909310  19.4759310
  78.6049310  23.1619310  19.2059310  73.9319310  30.4769310  31.8429310
  73.3619310  31.1639310  32.1899310  73.4799310  29.6609310  32.0569310
  73.8009310  30.4609310  31.9149310  78.2349310  17.6819310  23.9159310
  78.0099310  18.4669310  24.4149310  79.1339310  17.8339310  23.6239310
  78.3219310  17.8019310  23.9429310  77.4899310  19.8169310  29.2009310
  76.6389310  19.3859310  29.1139310  77.5889310  19.9639310  30.1419310
  77.3929310  19.7809310  29.3099310  76.1209310  16.8379310  36.3519310
  75.5679310  17.1489310  37.0679310  76.1819310  17.5839310  35.7549310
  76.0579310  16.9729310  36.3669310  74.9119310  29.3509310  25.0369310
  74.2759310  28.8959310  25.5879310  74.4239310  30.0849310  24.6639310
  74.7689310  29.3869310  25.0599310  77.2019310  30.9919310  36.0239310
  76.8149310  30.6269310  35.2279310  76.5539310  31.6209310  36.3389310
  77.0689310  31.0249310  35.9629310  69.5619310  30.3459310  33.3929310
  69.1799310  31.1889310  33.6369310  70.3859310  30.5719310  32.9619310
  69.6179310  30.4829310  33.3689310  71.4649310  19.9719310  28.8149310
  71.3709310  19.5049310  27.9849310  72.2879310  19.6489310  29.1799310
  71.5579310  19.8709310  28.7559310  73.6279310  19.2299310  30.0709310
  74.0799310  18.6509310  30.6849310  74.1909310  19.2449310  29.2979310
  73.7579310  19.1579310  30.0509310  70.2099310  22.3299310  34.3399310
  69.6439310  22.6909310  33.6579310  69.7139310  22.4459310  35.1499310
  70.0739310  22.3909310  34.3559310  78.0259310  32.3739310  24.4859310
  77.7879310  31.5609310  24.9299310  77.2209310  32.6519310  24.0489310
  77.8929310  32.3059310  24.4869310  72.6269310  28.0879310  31.9149310
  72.1659310  28.4319310  31.1499310  72.7079310  27.1499310  31.7429310
  72.5779310  28.0119310  31.7949310  70.8229310  25.7289310  24.0999310
  71.7789310  25.7609310  24.1269310  70.5519310  26.6459310  24.1379310
  70.9109310  25.8499310  24.1079310  75.6629310  21.1879310  37.0429310
  74.8979310  20.7909310  37.4609310  75.4089310  22.0989310  36.8949310
  75.5319310  21.2539310  37.0779310  72.1819310  19.0189310  22.0709310
  72.4899310  19.0839310  22.9749310  71.2639310  18.7609310  22.1499310
  72.1039310  18.9939310  22.1969310  68.1109310  29.3319310  20.4159310
  68.7389310  28.8089310  20.9149310  68.6049310  29.6379310  19.6549310
  68.2549310  29.3039310  20.3829310  73.7829310  31.4159310  23.6869310
  73.0829310  31.8139310  23.1699310  74.2149310  30.8129310  23.0809310
  73.7489310  31.3899310  23.5429310  77.2019310  25.7429310  25.8279310
  77.7159310  25.1429310  25.2879310  76.9279310  26.4329310  25.2239310
  77.2319310  25.7539310  25.6819310  69.6889310  33.0979310  19.8739310
  70.2459310  32.3389310  20.0459310  70.2569310  33.8519310  20.0299310
  69.8329310  33.0969310  19.9159310  74.9779310  19.1269310  27.7389310
  74.7999310  19.7169310  27.0069310  75.4629310  18.3999310  27.3489310
  75.0169310  19.1099310  27.5959310  68.5829310  25.7169310  26.3159310
  69.1799310  25.9729310  25.6119310  68.8859310  26.2119310  27.0779310
  68.6979310  25.8129310  26.3229310  71.2639310  29.2239310  30.1209310
  71.5229310  29.9169310  29.5129310  70.3919310  29.4829310  30.4199310
  71.1859310  29.3459310  30.0809310  77.8819310  23.7249310  35.0069310
  77.1279310  23.3949310  34.5179310  77.6809310  23.5269310  35.9209310
  77.7599310  23.6569310  35.0609310  75.4039310  18.5119310  13.7379310
  75.6319310  18.4839310  14.6669310  74.7749310  17.7999310  13.6249310
  75.3529310  18.4169310  13.8429310  72.8029310  32.6979310  13.9979310
  71.8489310  32.6299310  13.9659310  72.9919310  33.0049310  14.8839310
  72.7049310  32.7289310  14.1069310  77.5679310  30.1419310   7.1609310
  77.3939310  30.3029310   8.0889310  76.8029310  29.6559310   6.8549310
  77.4479310  30.0999310   7.2409310  73.3199310  16.7979310  13.2439310
  72.7599310  17.2459310  13.8779310  73.1739310  15.8669310  13.4109310
  73.2299310  16.7359310  13.3459310  74.1389310  25.0389310   2.4919310
  73.9849310  25.4959310   3.3189310  74.8509310  24.4289310   2.6839310
  74.2099310  25.0189310   2.6219310  77.5339310  20.2479310  13.0969310
  76.9309310  19.6069310  13.4719310  78.3229310  20.1789310  13.6349310
  77.5579310  20.1579310  13.2139310  78.0719310  16.6849310  19.3749310
  78.9639310  16.4559310  19.1109310  77.5499310  16.5639310  18.5819310
  78.1199310  16.6409310  19.2399310  71.0259310  31.2949310   7.4549310
  71.0639310  32.1879310   7.1109310  70.2269310  31.2739310   7.9809310
  70.9289310  31.4069310   7.4779310  75.7369310  33.0849310   4.1439310
  74.9379310  32.5579310   4.1539310  76.0809310  32.9819310   3.2569310
  75.6789310  33.0039310   4.0319310  77.8469310  26.3089310  15.1369310
  77.7189310  25.4439310  15.5259310  78.2899310  26.1339310  14.3059310
  77.8869310  26.1759310  15.0799310  68.9709310  20.6389310  13.6939310
  69.2479310  21.2079310  14.4119310  68.3689310  20.0159310  14.1009310
  68.9299310  20.6319310  13.8379310  69.8439310  26.9759310  16.2869310
  68.9229310  26.7559310  16.1469310  69.9239310  27.0829310  17.2339310
  69.7359310  26.9609310  16.3899310  73.5459310  21.2449310   7.2639310
  73.1389310  21.2439310   6.3969310  73.0599310  21.9079310   7.7549310
  73.4319310  21.3299310   7.2159310  71.6649310  17.6409310  15.2819310
  71.8719310  18.5389310  15.5389310  71.3089310  17.2399310  16.0749310
  71.6459310  17.7039310  15.4159310  72.9729310  18.4319310   5.9819310
  72.2149310  18.4189310   6.5669310  73.5049310  17.6879310   6.2629310
  72.9439310  18.3349310   6.0929310  77.6329310  22.6309310   5.8129310
  76.8079310  22.6129310   5.3279310  77.3819310  22.4449310   6.7179310
  77.4949310  22.6049310   5.8669310  74.7469310  32.2959310  10.4299310
  74.4859310  31.9209310  11.2709310  75.4779310  31.7509310  10.1409310
  74.8069310  32.1779310  10.4999310  72.9849310  30.4889310   9.1449310
  72.2609310  30.7919310   8.5969310  73.5789310  31.2389310   9.1929310
  72.9689310  30.6239310   9.0809310  69.5339310  20.6429310  19.3349310
  69.3359310  20.7239310  18.4029310  68.7399310  20.9459310  19.7759310
  69.4069310  20.6919310  19.2719310  76.8849310  32.7149310   1.7759310
  77.3439310  31.8929310   1.9479310  77.5829310  33.3549310   1.6369310
  77.0329310  32.6919310   1.7799310  75.6079310  23.2059310  10.7579310
  76.4889310  23.4979310  10.9899310  75.6939310  22.8719310   9.8649310
  75.7319310  23.2009310  10.6729310  69.5019310  29.6689310  18.0919310
  68.7399310  30.2369310  17.9749310  69.7069310  29.3589310  17.2099310
  69.4299310  29.7019310  17.9639310  71.5729310  30.9639310  19.4289310
  72.0559310  31.5249310  18.8219310  71.1299310  30.3279310  18.8679310
  71.5779310  30.9549310  19.2799310  75.1989310  32.6999310  18.2269310
  75.7729310  32.6129310  18.9879310  75.1569310  33.6419310  18.0649310
  75.2669310  32.8089310  18.3029310  75.5539310  26.5539310  18.1279310
  75.3969310  25.6099310  18.0919310  75.4649310  26.8459310  17.2209310
  75.5219310  26.4699310  18.0069310  72.5799310  32.4509310  17.1419310
  72.3279310  33.3549310  17.3329310  73.4849310  32.3859310  17.4449310
  72.6639310  32.5589310  17.2049310  69.7819310  17.4399310  10.6969310
  70.6159310  17.8939310  10.5729310  69.1939310  17.8389310  10.0569310
  69.8139310  17.5489310  10.5999310  70.8809310  16.5729310  17.7089310
  70.0479310  16.1459310  17.9099310  70.8479310  17.3999310  18.1889310
  70.7699310  16.6239310  17.7959310  77.2159310  22.0349310   8.4469310
  77.3019310  21.2509310   8.9899310  77.6559310  22.7219310   8.9469310
  77.2829310  22.0229310   8.5799310  70.2909310  34.2569310   4.9659310
  69.5099310  34.1259310   4.4279310  70.2609310  35.1819310   5.2099310
  70.1869310  34.3589310   4.9279310  76.6439310  30.5229310   9.6559310
  76.1639310  29.7149310   9.8329310  77.3739310  30.5089310  10.2749310
  76.6759310  30.4179310   9.7579310  76.1869310  23.0239310  14.0429310
  75.3419310  22.7039310  14.3599310  76.6599310  22.2329310  13.7839310
  76.1389310  22.8819310  14.0509310  73.1139310  28.2099310  18.3769310
  73.9249310  27.7219310  18.2349310  72.8449310  28.4869310  17.5009310
  73.1829310  28.1829310  18.2459310  72.0219310  32.7819310   3.4999310
  71.4399310  33.2799310   4.0729310  72.2509310  33.3929310   2.7999310
  71.9769310  32.9239310   3.4839310  75.3759310  27.2499310  15.4049310
  76.2559310  26.8769310  15.3529310  74.8379310  26.6689310  14.8679310
  75.4199310  27.1279310  15.3299310  72.6589310  25.0849310  12.6799310
  72.2819310  24.9579310  13.5499310  72.0959310  24.5739310  12.0979310
  72.5389310  25.0039310  12.7169310  69.6489310  28.1609310   8.9559310
  70.0429310  28.0909310   8.0859310  70.2609310  27.7059310   9.5329310
  69.7779310  28.0939310   8.9179310  79.1199310  24.7049310   4.8069310
  78.4479310  24.0239310   4.8369310  79.1989310  24.9219310   3.8779310
  79.0439310  24.6459310   4.6919310  72.8069310  19.5579310  18.7699310
  72.6539310  19.8379310  17.8679310  72.5699310  20.3179310  19.3009310
  72.7569310  19.6909310  18.7229310  74.7399310  23.6789310  17.8759310
  74.6249310  23.3949310  16.9689310  73.8489310  23.7819310  18.2089310
  74.6109310  23.6559310  17.8019310  73.7849310  22.0059310  12.7219310
  73.1949310  21.2669310  12.5699310  74.3969310  21.9779310  11.9869310
  73.7879310  21.9079310  12.6079310  75.1699310  28.1979310  10.7539310
  75.1299310  27.2429310  10.7169310  74.7149310  28.4259310  11.5639310
  75.1069310  28.1049310  10.8529310  68.7529310  23.9529310   4.5729310
  69.4179310  24.5529310   4.9109310  67.9209310  24.3869310   4.7619310
  68.7319310  24.0849310   4.6409310  71.0859310  28.3979310   6.7749310
  71.7649310  28.1179310   7.3889310  71.1839310  29.3479310   6.7259310
  71.1849310  28.4839310   6.8479310  70.7559310  18.5889310   7.5399310
  70.5179310  17.7699310   7.1059310  69.9949310  19.1569310   7.4129310
  70.6279310  18.5569310   7.4679310  75.3269310  17.4039310   3.5439310
  75.5719310  16.5289310   3.8449310  75.1119310  17.8809310   4.3449310
  75.3309310  17.3529310   3.6849310  74.1339310  26.0219310   4.8669310
  74.9569310  26.5079310   4.8289310  74.1849310  25.5269310   5.6839310
  74.2459310  26.0209310   4.9659310  70.8249310  33.8969310   8.9429310
  70.2829310  34.3199310   9.6099310  71.7239310  34.0939310   9.2049310
  70.8699310  33.9769310   9.0619310  76.4289310  27.6589310   4.8689310
  75.9059310  28.3619310   5.2549310  76.4409310  27.8549310   3.9329310
  76.3639310  27.7739310   4.7989310  72.3659310  27.9619310  15.8629310
  72.3279310  28.2789310  14.9609310  71.4939310  27.6029310  16.0279310
  72.2489310  27.9559310  15.7689310  76.2739310  29.7019310  14.4379310
  75.4909310  30.1079310  14.0689310  75.9859310  28.8309310  14.7109310
  76.1369310  29.6419310  14.4259310  70.0119310  31.7139310  11.1809310
  70.6669310  32.0749310  10.5839310  69.3339310  31.3589310  10.6059310
  70.0089310  31.7149310  11.0309310  75.2999310  25.6589310  12.9169310
  75.6249310  24.8559310  13.3239310  74.4309310  25.4269310  12.5909310
  75.2299310  25.5269310  12.9269310  70.9159310  26.5929310  18.8859310
  71.7189310  27.1029310  18.7759310  70.4659310  27.0109310  19.6199310
  70.9609310  26.7119310  18.9659310  70.0009310  27.5239310   2.3449310
  70.7679310  27.2009310   2.8199310  69.2589310  27.2849310   2.8999310
  70.0039310  27.4519310   2.4769310  69.3389310  21.2799310  11.0409310
  70.1369310  20.9299310  10.6459310  69.3189310  20.8999310  11.9189310
  69.4379310  21.1859310  11.1029310  71.4239310  26.0669310   9.7539310
  72.3809310  26.0509310   9.7349310  71.1789310  25.2529310  10.1939310
  71.5149310  25.9609310   9.8079310  78.8009310  29.4299310  13.6019310
  79.1939310  30.2509310  13.8979310  77.8879310  29.4849310  13.8839310
  78.7349310  29.5419310  13.6759310  72.8249310  21.5909310   4.5759310
  72.7349310  21.3199310   3.6629310  71.9269310  21.7479310   4.8689310
  72.6979310  21.5769310   4.4969310  74.7709310  24.5069310   6.9759310
  74.9589310  23.7549310   6.4139310  75.6269310  24.8979310   7.1459310
  74.9039310  24.4609310   6.9259310  76.4269310  19.3669310  16.2159310
  77.3489310  19.4429310  16.4599310  75.9749310  19.9839310  16.7909310
  76.4869310  19.4549310  16.3199310  73.4179310  16.3769310   9.1349310
  73.5889310  17.2979310   9.3339310  73.9839310  15.8929310   9.7359310
  73.5119310  16.4329310   9.2369310  74.2719310  25.5039310   9.5279310
  74.5289310  25.0859310   8.7059310  74.3559310  24.8119310  10.1839310
  74.3159310  25.3619310   9.5069310  78.9739310  34.3729310   7.3259310
  78.7889310  33.5459310   6.8799310  78.6619310  35.0459310   6.7209310
  78.9099310  34.3529310   7.1909310  76.7639310  34.7529310   9.4989310
  76.7299310  34.0659310  10.1639310  77.2399310  34.3579310   8.7689310
  76.8199310  34.6149310   9.4909310  78.2749310  22.8619310  11.3029310
  77.8259310  22.1079310  11.6849310  78.9969310  22.4819310  10.8029310
  78.3099310  22.7169310  11.2879310  75.2979310  19.5989310   5.2859310
  75.1499310  20.5419310   5.2079310  74.5059310  19.2669310   5.7099310
  75.1779310  19.6769310   5.3299310  74.5539310  20.0879310   1.8809310
  73.6369310  19.8729310   2.0469310  75.0289310  19.6999310   2.6159310
  74.4969310  20.0109310   1.9959310  71.1959310  24.8339310  15.1519310
  70.5169310  25.4729310  15.3719310  70.7869310  23.9849310  15.3149310
  71.0559310  24.8069310  15.2009310  69.3439310  17.7429310  13.7339310
  70.2059310  17.7039310  14.1479310  69.5299310  17.8929310  12.8069310
  69.4779310  17.7569310  13.6679310  68.8029310  22.9139310  17.7209310
  68.2029310  23.6469310  17.8619310  69.3499310  22.8969310  18.5069310
  68.7959310  23.0059310  17.8399310  70.1589310  21.8149310   5.7639310
  70.5589310  22.3999310   6.4079310  69.6949310  22.3999310   5.1649310
  70.1509310  21.9649310   5.7699310  70.5489310  23.7509310  10.9519310
  69.7699310  24.2569310  11.1829310  70.2869310  22.8379310  11.0749310
  70.4159310  23.6989310  10.9969310  73.6449310  27.9079310   8.0579310
  73.5579310  28.6879310   8.6069310  73.7169310  27.1839310   8.6809310
  73.6429310  27.9149310   8.2079310  69.2759310  18.9919310   3.2629310
  69.2189310  18.7379310   2.3419310  68.7279310  19.7739310   3.3309310
  69.1989310  19.0599310   3.1539310  73.7469310  23.0489310  15.2419310
  73.6559310  22.9289310  14.2969310  73.0229310  23.6269310  15.4799310
  73.6429310  23.1079310  15.1509310  74.8289310  16.5649310   6.6939310
  74.4239310  16.2339310   7.4959310  74.9359310  15.7909310   6.1419310
  74.7909310  16.4239310   6.7259310  75.3719310  22.6109310   4.5799310
  75.7449310  22.5459310   3.7009310  74.4669310  22.3149310   4.4789310
  75.3039310  22.5639310   4.4549310  75.0709310  29.7679310   3.0139310
  74.3389310  29.2789310   2.6379310  75.7309310  29.7809310   2.3219310
  75.0609310  29.7069310   2.8779310  77.5169310  19.5079310   6.9649310
  76.6649310  19.3699310   6.5529310  77.5669310  20.4549310   7.1009310
  77.4149310  19.6119310   6.9299310  70.0169310  33.1129310  13.5849310
  69.7239310  32.8399310  12.7149310  69.7089310  34.0149310  13.6689310
  69.9399310  33.1929310  13.4839310  72.3889310  20.1759310  16.1559310
  73.1799310  20.2089310  15.6189310  72.0289310  21.0619310  16.1079310
  72.4439310  20.2929310  16.0809310  73.9319310  30.4769310  12.9829310
  73.3619310  31.1639310  13.3299310  73.4799310  29.6609310  13.1969310
  73.8009310  30.4609310  13.0549310  78.2349310  17.6819310   5.0559310
  78.0099310  18.4669310   5.5549310  79.1339310  17.8339310   4.7639310
  78.3219310  17.8019310   5.0829310  77.4899310  19.8169310  10.3409310
  76.6389310  19.3859310  10.2539310  77.5889310  19.9639310  11.2819310
  77.3929310  19.7809310  10.4499310  76.1209310  16.8379310  17.4919310
  75.5679310  17.1489310  18.2079310  76.1819310  17.5839310  16.8949310
  76.0579310  16.9729310  17.5069310  74.9119310  29.3509310   6.1769310
  74.2759310  28.8959310   6.7279310  74.4239310  30.0849310   5.8039310
  74.7689310  29.3869310   6.1999310  77.2019310  30.9919310  17.1639310
  76.8149310  30.6269310  16.3679310  76.5539310  31.6209310  17.4789310
  77.0689310  31.0249310  17.1029310  69.5619310  30.3459310  14.5329310
  69.1799310  31.1889310  14.7769310  70.3859310  30.5719310  14.1019310
  69.6179310  30.4829310  14.5089310  71.4649310  19.9719310   9.9549310
  71.3709310  19.5049310   9.1249310  72.2879310  19.6489310  10.3199310
  71.5579310  19.8709310   9.8959310  73.6279310  19.2299310  11.2109310
  74.0799310  18.6509310  11.8249310  74.1909310  19.2449310  10.4379310
  73.7579310  19.1579310  11.1909310  70.2099310  22.3299310  15.4799310
  69.6439310  22.6909310  14.7979310  69.7139310  22.4459310  16.2899310
  70.0739310  22.3909310  15.4959310  78.0259310  32.3739310   5.6259310
  77.7879310  31.5609310   6.0699310  77.2209310  32.6519310   5.1889310
  77.8929310  32.3059310   5.6269310  72.6269310  28.0879310  13.0549310
  72.1659310  28.4319310  12.2899310  72.7079310  27.1499310  12.8829310
  72.5779310  28.0119310  12.9349310  70.8229310  25.7289310   5.2399310
  71.7789310  25.7609310   5.2669310  70.5519310  26.6459310   5.2779310
  70.9109310  25.8499310   5.2479310  75.6629310  21.1879310  18.1829310
  74.8979310  20.7909310  18.6009310  75.4089310  22.0989310  18.0349310
  75.5319310  21.2539310  18.2179310  72.1819310  19.0189310   3.2109310
  72.4899310  19.0839310   4.1149310  71.2639310  18.7609310   3.2899310
  72.1039310  18.9939310   3.3369310  73.7829310  31.4159310   4.8269310
  73.0829310  31.8139310   4.3099310  74.2149310  30.8129310   4.2209310
  73.7489310  31.3899310   4.6829310  77.2019310  25.7429310   6.9679310
  77.7159310  25.1429310   6.4279310  76.9279310  26.4329310   6.3639310
  77.2319310  25.7539310   6.8219310  74.9779310  19.1269310   8.8789310
  74.7999310  19.7169310   8.1469310  75.4629310  18.3999310   8.4889310
  75.0169310  19.1099310   8.7359310  68.5829310  25.7169310   7.4559310
  69.1799310  25.9729310   6.7519310  68.8859310  26.2119310   8.2179310
  68.6979310  25.8129310   7.4629310  71.2639310  29.2239310  11.2609310
  71.5229310  29.9169310  10.6529310  70.3919310  29.4829310  11.5599310
  71.1859310  29.3459310  11.2209310  77.8819310  23.7249310  16.1469310
  77.1279310  23.3949310  15.6579310  77.6809310  23.5269310  17.0609310
  77.7599310  23.6569310  16.2009310  72.8029310  13.8309310  70.5779310
  71.8489310  13.7629310  70.5459310  72.9919310  14.1379310  71.4639310
  72.7049310  13.8619310  70.6869310  77.5679310  11.2749310  63.7409310
  77.3939310  11.4359310  64.6689310  76.8029310  10.7889310  63.4349310
  77.4479310  11.2329310  63.8209310  74.1389310   6.1719310  59.0719310
  73.9849310   6.6289310  59.8989310  74.8509310   5.5619310  59.2639310
  74.2099310   6.1519310  59.2019310  71.0259310  12.4279310  64.0349310
  71.0639310  13.3209310  63.6909310  70.2269310  12.4069310  64.5609310
  70.9289310  12.5399310  64.0579310  75.7369310  14.2179310  60.7239310
  74.9379310  13.6909310  60.7339310  76.0809310  14.1149310  59.8369310
  75.6789310  14.1369310  60.6119310  77.8469310   7.4419310  71.7169310
  77.7189310   6.5769310  72.1059310  78.2899310   7.2669310  70.8859310
  77.8869310   7.3089310  71.6599310  69.8439310   8.1089310  72.8669310
  68.9229310   7.8889310  72.7269310  69.9239310   8.2159310  73.8139310
  69.7359310   8.0939310  72.9699310  73.5459310   2.3779310  63.8439310
  73.1389310   2.3769310  62.9769310  73.0599310   3.0409310  64.3349310
  73.4319310   2.4629310  63.7959310  77.6329310   3.7639310  62.3929310
  76.8079310   3.7459310  61.9079310  77.3819310   3.5779310  63.2979310
  77.4949310   3.7379310  62.4469310  74.7469310  13.4289310  67.0099310
  74.4859310  13.0539310  67.8509310  75.4779310  12.8839310  66.7209310
  74.8069310  13.3109310  67.0799310  72.9849310  11.6219310  65.7249310
  72.2609310  11.9249310  65.1769310  73.5789310  12.3719310  65.7729310
  72.9689310  11.7569310  65.6609310  72.4579310   5.3859310  57.0629310
  71.8549310   6.1229310  56.9669310  73.0869310   5.6759310  57.7239310
  72.4609310   5.5169310  57.1349310  76.8849310  13.8479310  58.3559310
  77.3439310  13.0259310  58.5279310  77.5829310  14.4879310  58.2169310
  77.0329310  13.8249310  58.3599310  75.6079310   4.3389310  67.3379310
  76.4889310   4.6309310  67.5699310  75.6939310   4.0049310  66.4449310
  75.7319310   4.3339310  67.2529310  72.5799310  13.5839310  73.7219310
  72.3279310  14.4879310  73.9129310  73.4849310  13.5189310  74.0249310
  72.6639310  13.6919310  73.7849310  77.2159310   3.1679310  65.0269310
  77.3019310   2.3839310  65.5699310  77.6559310   3.8549310  65.5269310
  77.2829310   3.1559310  65.1599310  70.2909310  15.3899310  61.5459310
  69.5099310  15.2589310  61.0079310  70.2609310  16.3149310  61.7899310
  70.1869310  15.4919310  61.5079310  76.6439310  11.6559310  66.2359310
  76.1639310  10.8479310  66.4129310  77.3739310  11.6419310  66.8549310
  76.6759310  11.5509310  66.3379310  76.1869310   4.1569310  70.6229310
  75.3419310   3.8369310  70.9399310  76.6599310   3.3659310  70.3639310
  76.1389310   4.0149310  70.6309310  72.0219310  13.9149310  60.0799310
  71.4399310  14.4129310  60.6529310  72.2509310  14.5259310  59.3799310
  71.9769310  14.0569310  60.0639310  75.3759310   8.3829310  71.9849310
  76.2559310   8.0099310  71.9329310  74.8379310   7.8019310  71.4479310
  75.4199310   8.2609310  71.9099310  72.6589310   6.2179310  69.2599310
  72.2819310   6.0909310  70.1299310  72.0959310   5.7069310  68.6779310
  72.5389310   6.1369310  69.2969310  69.6489310   9.2939310  65.5359310
  70.0429310   9.2239310  64.6659310  70.2609310   8.8389310  66.1129310
  69.7779310   9.2269310  65.4979310  79.1199310   5.8379310  61.3869310
  78.4479310   5.1569310  61.4169310  79.1989310   6.0549310  60.4579310
  79.0439310   5.7789310  61.2719310  73.7849310   3.1389310  69.3019310
  73.1949310   2.3999310  69.1499310  74.3969310   3.1109310  68.5669310
  73.7879310   3.0409310  69.1879310  75.1699310   9.3309310  67.3339310
  75.1299310   8.3759310  67.2969310  74.7149310   9.5589310  68.1439310
  75.1069310   9.2379310  67.4329310  68.7529310   5.0859310  61.1529310
  69.4179310   5.6859310  61.4909310  67.9209310   5.5199310  61.3419310
  68.7319310   5.2179310  61.2209310  71.0859310   9.5309310  63.3549310
  71.7649310   9.2509310  63.9689310  71.1839310  10.4809310  63.3059310
  71.1849310   9.6169310  63.4279310  76.4999310   8.2669310  58.4419310
  76.1169310   7.9579310  57.6209310  76.7389310   9.1779310  58.2669310
  76.4819310   8.3439310  58.3149310  72.1649310   2.8019310  58.1579310
  71.2399310   2.5589310  58.1959310  72.1609310   3.7219310  57.8929310
  72.0469310   2.8889310  58.1289310  74.1339310   7.1549310  61.4469310
  74.9569310   7.6409310  61.4089310  74.1849310   6.6599310  62.2639310
  74.2459310   7.1539310  61.5459310  70.8249310  15.0299310  65.5229310
  70.2829310  15.4529310  66.1899310  71.7239310  15.2269310  65.7849310
  70.8699310  15.1099310  65.6419310  76.4289310   8.7919310  61.4489310
  75.9059310   9.4949310  61.8349310  76.4409310   8.9879310  60.5129310
  76.3639310   8.9069310  61.3789310  72.3659310   9.0949310  72.4429310
  72.3279310   9.4119310  71.5409310  71.4939310   8.7359310  72.6079310
  72.2489310   9.0889310  72.3489310  76.2739310  10.8349310  71.0179310
  75.4909310  11.2409310  70.6489310  75.9859310   9.9639310  71.2909310
  76.1369310  10.7749310  71.0059310  70.0119310  12.8469310  67.7609310
  70.6669310  13.2079310  67.1639310  69.3339310  12.4919310  67.1859310
  70.0089310  12.8479310  67.6109310  75.2999310   6.7919310  69.4969310
  75.6249310   5.9889310  69.9039310  74.4309310   6.5599310  69.1709310
  75.2299310   6.6599310  69.5069310  76.0369310   3.6199310  58.4669310
  75.5559310   2.8029310  58.3359310  76.4709310   3.7789310  57.6289310
  76.0309310   3.5359310  58.3429310  70.0009310   8.6569310  58.9249310
  70.7679310   8.3339310  59.3999310  69.2589310   8.4179310  59.4799310
  70.0039310   8.5849310  59.0569310  69.3389310   2.4129310  67.6209310
  70.1369310   2.0629310  67.2259310  69.3189310   2.0329310  68.4989310
  69.4379310   2.3189310  67.6829310  71.4239310   7.1999310  66.3339310
  72.3809310   7.1839310  66.3149310  71.1789310   6.3859310  66.7739310
  71.5149310   7.0939310  66.3879310  78.8009310  10.5629310  70.1819310
  79.1939310  11.3839310  70.4779310  77.8879310  10.6179310  70.4639310
  78.7349310  10.6749310  70.2559310  72.8249310   2.7239310  61.1559310
  72.7349310   2.4529310  60.2429310  71.9269310   2.8809310  61.4489310
  72.6979310   2.7099310  61.0769310  74.7709310   5.6399310  63.5559310
  74.9589310   4.8879310  62.9939310  75.6269310   6.0309310  63.7259310
  74.9039310   5.5939310  63.5059310  77.2209310  10.8469310  57.8389310
  78.0649310  10.8089310  58.2899310  77.4439310  11.0519310  56.9309310
  77.3579310  10.8679310  57.7809310  74.2719310   6.6369310  66.1079310
  74.5289310   6.2189310  65.2859310  74.3559310   5.9449310  66.7639310
  74.3159310   6.4949310  66.0869310  78.9739310  15.5059310  63.9059310
  78.7889310  14.6789310  63.4599310  78.6619310  16.1789310  63.3009310
  78.9099310  15.4859310  63.7709310  76.7639310  15.8859310  66.0789310
  76.7299310  15.1989310  66.7439310  77.2399310  15.4909310  65.3489310
  76.8199310  15.7479310  66.0709310  78.2749310   3.9949310  67.8829310
  77.8259310   3.2409310  68.2649310  78.9969310   3.6149310  67.3829310
  78.3099310   3.8499310  67.8679310  71.1959310   5.9669310  71.7319310
  70.5169310   6.6059310  71.9519310  70.7869310   5.1179310  71.8949310
  71.0559310   5.9399310  71.7809310  70.1589310   2.9479310  62.3439310
  70.5589310   3.5329310  62.9879310  69.6949310   3.5329310  61.7449310
  70.1509310   3.0979310  62.3499310  73.0349310   9.6629310  58.6729310
  73.1209310   9.6119310  57.7209310  72.4819310  10.4309310  58.8219310
  72.9749310   9.7549310  58.5699310  70.5489310   4.8839310  67.5319310
  69.7699310   5.3899310  67.7629310  70.2869310   3.9709310  67.6549310
  70.4159310   4.8319310  67.5769310  73.6449310   9.0409310  64.6379310
  73.5579310   9.8209310  65.1869310  73.7169310   8.3169310  65.2609310
  73.6429310   9.0479310  64.7879310  73.7469310   4.1819310  71.8219310
  73.6559310   4.0619310  70.8769310  73.0229310   4.7599310  72.0599310
  73.6429310   4.2409310  71.7309310  75.3719310   3.7439310  61.1599310
  75.7449310   3.6789310  60.2809310  74.4669310   3.4479310  61.0589310
  75.3039310   3.6969310  61.0349310  75.0709310  10.9009310  59.5939310
  74.3389310  10.4119310  59.2179310  75.7309310  10.9139310  58.9019310
  75.0609310  10.8399310  59.4579310  70.0169310  14.2459310  70.1649310
  69.7239310  13.9729310  69.2949310  69.7089310  15.1479310  70.2489310
  69.9399310  14.3259310  70.0639310  78.5619310   4.3119310  56.7839310
  78.5429310   4.9619310  57.4859310  78.9169310   3.5239310  57.1959310
  78.6049310   4.2949310  56.9259310  73.9319310  11.6099310  69.5629310
  73.3619310  12.2969310  69.9099310  73.4799310  10.7939310  69.7769310
  73.8009310  11.5939310  69.6349310  74.9119310  10.4839310  62.7569310
  74.2759310  10.0289310  63.3079310  74.4239310  11.2179310  62.3839310
  74.7689310  10.5199310  62.7799310  77.2019310  12.1249310  73.7439310
  76.8149310  11.7599310  72.9479310  76.5539310  12.7539310  74.0589310
  77.0689310  12.1579310  73.6829310  69.5619310  11.4789310  71.1129310
  69.1799310  12.3219310  71.3569310  70.3859310  11.7049310  70.6819310
  69.6179310  11.6159310  71.0889310  70.2099310   3.4629310  72.0599310
  69.6439310   3.8239310  71.3779310  69.7139310   3.5789310  72.8699310
  70.0739310   3.5239310  72.0759310  78.0259310  13.5069310  62.2059310
  77.7879310  12.6939310  62.6499310  77.2209310  13.7849310  61.7689310
  77.8929310  13.4389310  62.2069310  72.6269310   9.2209310  69.6349310
  72.1659310   9.5649310  68.8699310  72.7079310   8.2829310  69.4629310
  72.5779310   9.1449310  69.5149310  70.8229310   6.8619310  61.8199310
  71.7789310   6.8939310  61.8469310  70.5519310   7.7789310  61.8579310
  70.9109310   6.9829310  61.8279310  68.1109310  10.4649310  58.1359310
  68.7389310   9.9419310  58.6349310  68.6049310  10.7709310  57.3749310
  68.2549310  10.4369310  58.1029310  73.7829310  12.5489310  61.4069310
  73.0829310  12.9469310  60.8899310  74.2149310  11.9459310  60.8009310
  73.7489310  12.5229310  61.2629310  77.2019310   6.8759310  63.5479310
  77.7159310   6.2759310  63.0079310  76.9279310   7.5659310  62.9439310
  77.2319310   6.8869310  63.4019310  69.6889310  14.2309310  57.5939310
  70.2459310  13.4719310  57.7659310  70.2569310  14.9849310  57.7499310
  69.8329310  14.2299310  57.6359310  68.5829310   6.8499310  64.0359310
  69.1799310   7.1059310  63.3319310  68.8859310   7.3449310  64.7979310
  68.6979310   6.9459310  64.0429310  71.2639310  10.3569310  67.8409310
  71.5229310  11.0499310  67.2329310  70.3919310  10.6159310  68.1399310
  71.1859310  10.4789310  67.8009310  77.8819310   4.8579310  72.7269310
  77.1279310   4.5279310  72.2379310  77.6809310   4.6599310  73.6409310
  77.7599310   4.7899310  72.7809310  72.8029310  13.8309310  51.7179310
  71.8489310  13.7629310  51.6859310  72.9919310  14.1379310  52.6039310
  72.7049310  13.8619310  51.8269310  77.5679310  11.2749310  44.8809310
  77.3939310  11.4359310  45.8089310  76.8029310  10.7889310  44.5749310
  77.4479310  11.2329310  44.9609310  74.1389310   6.1719310  40.2119310
  73.9849310   6.6289310  41.0389310  74.8509310   5.5619310  40.4039310
  74.2099310   6.1519310  40.3419310  71.0259310  12.4279310  45.1749310
  71.0639310  13.3209310  44.8309310  70.2269310  12.4069310  45.7009310
  70.9289310  12.5399310  45.1979310  75.7369310  14.2179310  41.8639310
  74.9379310  13.6909310  41.8739310  76.0809310  14.1149310  40.9769310
  75.6789310  14.1369310  41.7519310  77.8469310   7.4419310  52.8569310
  77.7189310   6.5769310  53.2459310  78.2899310   7.2669310  52.0259310
  77.8869310   7.3089310  52.7999310  69.8439310   8.1089310  54.0069310
  68.9229310   7.8889310  53.8669310  69.9239310   8.2159310  54.9539310
  69.7359310   8.0939310  54.1099310  73.5459310   2.3779310  44.9839310
  73.1389310   2.3769310  44.1169310  73.0599310   3.0409310  45.4749310
  73.4319310   2.4629310  44.9359310  77.6329310   3.7639310  43.5329310
  76.8079310   3.7459310  43.0479310  77.3819310   3.5779310  44.4379310
  77.4949310   3.7379310  43.5869310  74.7469310  13.4289310  48.1499310
  74.4859310  13.0539310  48.9909310  75.4779310  12.8839310  47.8609310
  74.8069310  13.3109310  48.2199310  72.9849310  11.6219310  46.8649310
  72.2609310  11.9249310  46.3169310  73.5789310  12.3719310  46.9129310
  72.9689310  11.7569310  46.8009310  69.5339310   1.7759310  57.0549310
  69.3359310   1.8569310  56.1229310  68.7399310   2.0789310  57.4959310
  69.4069310   1.8249310  56.9919310  72.4579310   5.3859310  38.2029310
  71.8549310   6.1229310  38.1069310  73.0869310   5.6759310  38.8639310
  72.4609310   5.5169310  38.2749310  76.8849310  13.8479310  39.4959310
  77.3439310  13.0259310  39.6679310  77.5829310  14.4879310  39.3569310
  77.0329310  13.8249310  39.4999310  75.6079310   4.3389310  48.4779310
  76.4889310   4.6309310  48.7099310  75.6939310   4.0049310  47.5849310
  75.7319310   4.3339310  48.3929310  69.5019310  10.8019310  55.8119310
  68.7399310  11.3699310  55.6949310  69.7069310  10.4919310  54.9299310
  69.4299310  10.8349310  55.6839310  71.5729310  12.0969310  57.1489310
  72.0559310  12.6579310  56.5419310  71.1299310  11.4609310  56.5879310
  71.5779310  12.0879310  56.9999310  75.1989310  13.8329310  55.9469310
  75.7729310  13.7459310  56.7079310  75.1569310  14.7749310  55.7849310
  75.2669310  13.9419310  56.0229310  75.5539310   7.6869310  55.8479310
  75.3969310   6.7429310  55.8119310  75.4649310   7.9789310  54.9409310
  75.5219310   7.6029310  55.7269310  72.5799310  13.5839310  54.8619310
  72.3279310  14.4879310  55.0529310  73.4849310  13.5189310  55.1649310
  72.6639310  13.6919310  54.9249310  77.2159310   3.1679310  46.1669310
  77.3019310   2.3839310  46.7099310  77.6559310   3.8549310  46.6669310
  77.2829310   3.1559310  46.2999310  70.2909310  15.3899310  42.6859310
  69.5099310  15.2589310  42.1479310  70.2609310  16.3149310  42.9299310
  70.1869310  15.4919310  42.6479310  76.6439310  11.6559310  47.3759310
  76.1639310  10.8479310  47.5529310  77.3739310  11.6419310  47.9949310
  76.6759310  11.5509310  47.4779310  76.1869310   4.1569310  51.7629310
  75.3419310   3.8369310  52.0799310  76.6599310   3.3659310  51.5039310
  76.1389310   4.0149310  51.7709310  73.1139310   9.3429310  56.0969310
  73.9249310   8.8549310  55.9549310  72.8449310   9.6199310  55.2209310
  73.1829310   9.3159310  55.9659310  72.0219310  13.9149310  41.2199310
  71.4399310  14.4129310  41.7929310  72.2509310  14.5259310  40.5199310
  71.9769310  14.0569310  41.2039310  75.3759310   8.3829310  53.1249310
  76.2559310   8.0099310  53.0729310  74.8379310   7.8019310  52.5879310
  75.4199310   8.2609310  53.0499310  72.6589310   6.2179310  50.3999310
  72.2819310   6.0909310  51.2699310  72.0959310   5.7069310  49.8179310
  72.5389310   6.1369310  50.4369310  69.6489310   9.2939310  46.6759310
  70.0429310   9.2239310  45.8059310  70.2609310   8.8389310  47.2529310
  69.7779310   9.2269310  46.6379310  79.1199310   5.8379310  42.5269310
  78.4479310   5.1569310  42.5569310  79.1989310   6.0549310  41.5979310
  79.0439310   5.7789310  42.4119310  74.7399310   4.8119310  55.5959310
  74.6249310   4.5279310  54.6889310  73.8489310   4.9149310  55.9289310
  74.6109310   4.7889310  55.5219310  73.7849310   3.1389310  50.4419310
  73.1949310   2.3999310  50.2899310  74.3969310   3.1109310  49.7069310
  73.7879310   3.0409310  50.3279310  75.1699310   9.3309310  48.4739310
  75.1299310   8.3759310  48.4369310  74.7149310   9.5589310  49.2839310
  75.1069310   9.2379310  48.5729310  68.7529310   5.0859310  42.2929310
  69.4179310   5.6859310  42.6309310  67.9209310   5.5199310  42.4819310
  68.7319310   5.2179310  42.3609310  71.0859310   9.5309310  44.4949310
  71.7649310   9.2509310  45.1089310  71.1839310  10.4809310  44.4459310
  71.1849310   9.6169310  44.5679310  76.4999310   8.2669310  39.5819310
  76.1169310   7.9579310  38.7609310  76.7389310   9.1779310  39.4069310
  76.4819310   8.3439310  39.4549310  72.1649310   2.8019310  39.2979310
  71.2399310   2.5589310  39.3359310  72.1609310   3.7219310  39.0329310
  72.0469310   2.8889310  39.2689310  74.1339310   7.1549310  42.5869310
  74.9569310   7.6409310  42.5489310  74.1849310   6.6599310  43.4039310
  74.2459310   7.1539310  42.6859310  70.8249310  15.0299310  46.6629310
  70.2829310  15.4529310  47.3299310  71.7239310  15.2269310  46.9249310
  70.8699310  15.1099310  46.7819310  76.4289310   8.7919310  42.5889310
  75.9059310   9.4949310  42.9749310  76.4409310   8.9879310  41.6529310
  76.3639310   8.9069310  42.5189310  72.3659310   9.0949310  53.5829310
  72.3279310   9.4119310  52.6809310  71.4939310   8.7359310  53.7479310
  72.2489310   9.0889310  53.4889310  76.2739310  10.8349310  52.1579310
  75.4909310  11.2409310  51.7889310  75.9859310   9.9639310  52.4309310
  76.1369310  10.7749310  52.1459310  70.0119310  12.8469310  48.9009310
  70.6669310  13.2079310  48.3039310  69.3339310  12.4919310  48.3259310
  70.0089310  12.8479310  48.7509310  75.2999310   6.7919310  50.6369310
  75.6249310   5.9889310  51.0439310  74.4309310   6.5599310  50.3109310
  75.2299310   6.6599310  50.6469310  70.9159310   7.7259310  56.6059310
  71.7189310   8.2359310  56.4959310  70.4659310   8.1439310  57.3399310
  70.9609310   7.8449310  56.6859310  76.0369310   3.6199310  39.6069310
  75.5559310   2.8029310  39.4759310  76.4709310   3.7789310  38.7689310
  76.0309310   3.5359310  39.4829310  70.0009310   8.6569310  40.0649310
  70.7679310   8.3339310  40.5399310  69.2589310   8.4179310  40.6199310
  70.0039310   8.5849310  40.1969310  69.3389310   2.4129310  48.7609310
  70.1369310   2.0629310  48.3659310  69.3189310   2.0329310  49.6389310
  69.4379310   2.3189310  48.8229310  71.4239310   7.1999310  47.4739310
  72.3809310   7.1839310  47.4549310  71.1789310   6.3859310  47.9139310
  71.5149310   7.0939310  47.5279310  78.8009310  10.5629310  51.3219310
  79.1939310  11.3839310  51.6179310  77.8879310  10.6179310  51.6039310
  78.7349310  10.6749310  51.3959310  72.8249310   2.7239310  42.2959310
  72.7349310   2.4529310  41.3829310  71.9269310   2.8809310  42.5889310
  72.6979310   2.7099310  42.2169310  74.7709310   5.6399310  44.6959310
  74.9589310   4.8879310  44.1339310  75.6269310   6.0309310  44.8659310
  74.9039310   5.5939310  44.6459310  77.2209310  10.8469310  38.9789310
  78.0649310  10.8089310  39.4299310  77.4439310  11.0519310  38.0709310
  77.3579310  10.8679310  38.9209310  74.2719310   6.6369310  47.2479310
  74.5289310   6.2189310  46.4259310  74.3559310   5.9449310  47.9039310
  74.3159310   6.4949310  47.2269310  78.9739310  15.5059310  45.0459310
  78.7889310  14.6789310  44.5999310  78.6619310  16.1789310  44.4409310
  78.9099310  15.4859310  44.9109310  76.7639310  15.8859310  47.2189310
  76.7299310  15.1989310  47.8839310  77.2399310  15.4909310  46.4889310
  76.8199310  15.7479310  47.2109310  78.2749310   3.9949310  49.0229310
  77.8259310   3.2409310  49.4049310  78.9969310   3.6149310  48.5229310
  78.3099310   3.8499310  49.0079310  71.1959310   5.9669310  52.8719310
  70.5169310   6.6059310  53.0919310  70.7869310   5.1179310  53.0349310
  71.0559310   5.9399310  52.9209310  68.8029310   4.0469310  55.4409310
  68.2029310   4.7799310  55.5819310  69.3499310   4.0299310  56.2269310
  68.7959310   4.1389310  55.5599310  70.1589310   2.9479310  43.4839310
  70.5589310   3.5329310  44.1279310  69.6949310   3.5329310  42.8849310
  70.1509310   3.0979310  43.4899310  73.0349310   9.6629310  39.8129310
  73.1209310   9.6119310  38.8609310  72.4819310  10.4309310  39.9619310
  72.9749310   9.7549310  39.7099310  70.5489310   4.8839310  48.6719310
  69.7699310   5.3899310  48.9029310  70.2869310   3.9709310  48.7949310
  70.4159310   4.8319310  48.7169310  73.6449310   9.0409310  45.7779310
  73.5579310   9.8209310  46.3269310  73.7169310   8.3169310  46.4009310
  73.6429310   9.0479310  45.9279310  73.7469310   4.1819310  52.9619310
  73.6559310   4.0619310  52.0169310  73.0229310   4.7599310  53.1999310
  73.6429310   4.2409310  52.8709310  75.3719310   3.7439310  42.2999310
  75.7449310   3.6789310  41.4209310  74.4669310   3.4479310  42.1989310
  75.3039310   3.6969310  42.1749310  75.0709310  10.9009310  40.7339310
  74.3389310  10.4119310  40.3579310  75.7309310  10.9139310  40.0419310
  75.0609310  10.8399310  40.5979310  70.0169310  14.2459310  51.3049310
  69.7239310  13.9729310  50.4349310  69.7089310  15.1479310  51.3889310
  69.9399310  14.3259310  51.2039310  78.5619310   4.3119310  37.9239310
  78.5429310   4.9619310  38.6259310  78.9169310   3.5239310  38.3359310
  78.6049310   4.2949310  38.0659310  73.9319310  11.6099310  50.7029310
  73.3619310  12.2969310  51.0499310  73.4799310  10.7939310  50.9169310
  73.8009310  11.5939310  50.7749310  74.9119310  10.4839310  43.8969310
  74.2759310  10.0289310  44.4479310  74.4239310  11.2179310  43.5239310
  74.7689310  10.5199310  43.9199310  77.2019310  12.1249310  54.8839310
  76.8149310  11.7599310  54.0879310  76.5539310  12.7539310  55.1989310
  77.0689310  12.1579310  54.8229310  69.5619310  11.4789310  52.2529310
  69.1799310  12.3219310  52.4969310  70.3859310  11.7049310  51.8219310
  69.6179310  11.6159310  52.2289310  70.2099310   3.4629310  53.1999310
  69.6439310   3.8239310  52.5179310  69.7139310   3.5789310  54.0099310
  70.0739310   3.5239310  53.2159310  78.0259310  13.5069310  43.3459310
  77.7879310  12.6939310  43.7899310  77.2209310  13.7849310  42.9089310
  77.8929310  13.4389310  43.3469310  72.6269310   9.2209310  50.7749310
  72.1659310   9.5649310  50.0099310  72.7079310   8.2829310  50.6029310
  72.5779310   9.1449310  50.6549310  70.8229310   6.8619310  42.9599310
  71.7789310   6.8939310  42.9869310  70.5519310   7.7789310  42.9979310
  70.9109310   6.9829310  42.9679310  75.6629310   2.3209310  55.9029310
  74.8979310   1.9239310  56.3209310  75.4089310   3.2319310  55.7549310
  75.5319310   2.3869310  55.9379310  68.1109310  10.4649310  39.2759310
  68.7389310   9.9419310  39.7749310  68.6049310  10.7709310  38.5149310
  68.2549310  10.4369310  39.2429310  73.7829310  12.5489310  42.5469310
  73.0829310  12.9469310  42.0299310  74.2149310  11.9459310  41.9409310
  73.7489310  12.5229310  42.4029310  77.2019310   6.8759310  44.6879310
  77.7159310   6.2759310  44.1479310  76.9279310   7.5659310  44.0839310
  77.2319310   6.8869310  44.5419310  69.6889310  14.2309310  38.7339310
  70.2459310  13.4719310  38.9059310  70.2569310  14.9849310  38.8899310
  69.8329310  14.2299310  38.7759310  68.5829310   6.8499310  45.1759310
  69.1799310   7.1059310  44.4719310  68.8859310   7.3449310  45.9379310
  68.6979310   6.9459310  45.1829310  71.2639310  10.3569310  48.9809310
  71.5229310  11.0499310  48.3729310  70.3919310  10.6159310  49.2799310
  71.1859310  10.4789310  48.9409310  77.8819310   4.8579310  53.8669310
  77.1279310   4.5279310  53.3779310  77.6809310   4.6599310  54.7809310
  77.7599310   4.7899310  53.9209310  72.8029310  13.8309310  32.8579310
  71.8489310  13.7629310  32.8259310  72.9919310  14.1379310  33.7439310
  72.7049310  13.8619310  32.9669310  77.5679310  11.2749310  26.0209310
  77.3939310  11.4359310  26.9489310  76.8029310  10.7889310  25.7149310
  77.4479310  11.2329310  26.1009310  74.1389310   6.1719310  21.3519310
  73.9849310   6.6289310  22.1789310  74.8509310   5.5619310  21.5439310
  74.2099310   6.1519310  21.4819310  71.0259310  12.4279310  26.3149310
  71.0639310  13.3209310  25.9709310  70.2269310  12.4069310  26.8409310
  70.9289310  12.5399310  26.3379310  75.7369310  14.2179310  23.0039310
  74.9379310  13.6909310  23.0139310  76.0809310  14.1149310  22.1169310
  75.6789310  14.1369310  22.8919310  77.8469310   7.4419310  33.9969310
  77.7189310   6.5769310  34.3859310  78.2899310   7.2669310  33.1659310
  77.8869310   7.3089310  33.9399310  69.8439310   8.1089310  35.1469310
  68.9229310   7.8889310  35.0069310  69.9239310   8.2159310  36.0939310
  69.7359310   8.0939310  35.2499310  73.5459310   2.3779310  26.1239310
  73.1389310   2.3769310  25.2569310  73.0599310   3.0409310  26.6149310
  73.4319310   2.4629310  26.0759310  77.6329310   3.7639310  24.6729310
  76.8079310   3.7459310  24.1879310  77.3819310   3.5779310  25.5779310
  77.4949310   3.7379310  24.7269310  74.7469310  13.4289310  29.2899310
  74.4859310  13.0539310  30.1309310  75.4779310  12.8839310  29.0009310
  74.8069310  13.3109310  29.3599310  72.9849310  11.6219310  28.0049310
  72.2609310  11.9249310  27.4569310  73.5789310  12.3719310  28.0529310
  72.9689310  11.7569310  27.9409310  69.5339310   1.7759310  38.1949310
  69.3359310   1.8569310  37.2629310  68.7399310   2.0789310  38.6359310
  69.4069310   1.8249310  38.1319310  72.4579310   5.3859310  19.3429310
  71.8549310   6.1229310  19.2469310  73.0869310   5.6759310  20.0039310
  72.4609310   5.5169310  19.4149310  76.8849310  13.8479310  20.6359310
  77.3439310  13.0259310  20.8079310  77.5829310  14.4879310  20.4969310
  77.0329310  13.8249310  20.6399310  75.6079310   4.3389310  29.6179310
  76.4889310   4.6309310  29.8499310  75.6939310   4.0049310  28.7249310
  75.7319310   4.3339310  29.5329310  69.5019310  10.8019310  36.9519310
  68.7399310  11.3699310  36.8349310  69.7069310  10.4919310  36.0699310
  69.4299310  10.8349310  36.8239310  71.5729310  12.0969310  38.2889310
  72.0559310  12.6579310  37.6819310  71.1299310  11.4609310  37.7279310
  71.5779310  12.0879310  38.1399310  75.1989310  13.8329310  37.0869310
  75.7729310  13.7459310  37.8479310  75.1569310  14.7749310  36.9249310
  75.2669310  13.9419310  37.1629310  75.5539310   7.6869310  36.9879310
  75.3969310   6.7429310  36.9519310  75.4649310   7.9789310  36.0809310
  75.5219310   7.6029310  36.8669310  72.5799310  13.5839310  36.0019310
  72.3279310  14.4879310  36.1929310  73.4849310  13.5189310  36.3049310
  72.6639310  13.6919310  36.0649310  77.2159310   3.1679310  27.3069310
  77.3019310   2.3839310  27.8499310  77.6559310   3.8549310  27.8069310
  77.2829310   3.1559310  27.4399310  70.2909310  15.3899310  23.8259310
  69.5099310  15.2589310  23.2879310  70.2609310  16.3149310  24.0699310
  70.1869310  15.4919310  23.7879310  76.6439310  11.6559310  28.5159310
  76.1639310  10.8479310  28.6929310  77.3739310  11.6419310  29.1349310
  76.6759310  11.5509310  28.6179310  76.1869310   4.1569310  32.9029310
  75.3419310   3.8369310  33.2199310  76.6599310   3.3659310  32.6439310
  76.1389310   4.0149310  32.9109310  73.1139310   9.3429310  37.2369310
  73.9249310   8.8549310  37.0949310  72.8449310   9.6199310  36.3609310
  73.1829310   9.3159310  37.1059310  72.0219310  13.9149310  22.3599310
  71.4399310  14.4129310  22.9329310  72.2509310  14.5259310  21.6599310
  71.9769310  14.0569310  22.3439310  75.3759310   8.3829310  34.2649310
  76.2559310   8.0099310  34.2129310  74.8379310   7.8019310  33.7279310
  75.4199310   8.2609310  34.1899310  72.6589310   6.2179310  31.5399310
  72.2819310   6.0909310  32.4099310  72.0959310   5.7069310  30.9579310
  72.5389310   6.1369310  31.5769310  69.6489310   9.2939310  27.8159310
  70.0429310   9.2239310  26.9459310  70.2609310   8.8389310  28.3929310
  69.7779310   9.2269310  27.7779310  79.1199310   5.8379310  23.6669310
  78.4479310   5.1569310  23.6969310  79.1989310   6.0549310  22.7379310
  79.0439310   5.7789310  23.5519310  74.7399310   4.8119310  36.7359310
  74.6249310   4.5279310  35.8289310  73.8489310   4.9149310  37.0689310
  74.6109310   4.7889310  36.6619310  73.7849310   3.1389310  31.5819310
  73.1949310   2.3999310  31.4299310  74.3969310   3.1109310  30.8469310
  73.7879310   3.0409310  31.4679310  75.1699310   9.3309310  29.6139310
  75.1299310   8.3759310  29.5769310  74.7149310   9.5589310  30.4239310
  75.1069310   9.2379310  29.7129310  68.7529310   5.0859310  23.4329310
  69.4179310   5.6859310  23.7709310  67.9209310   5.5199310  23.6219310
  68.7319310   5.2179310  23.5009310  71.0859310   9.5309310  25.6349310
  71.7649310   9.2509310  26.2489310  71.1839310  10.4809310  25.5859310
  71.1849310   9.6169310  25.7079310  76.4999310   8.2669310  20.7219310
  76.1169310   7.9579310  19.9009310  76.7389310   9.1779310  20.5469310
  76.4819310   8.3439310  20.5949310  72.1649310   2.8019310  20.4379310
  71.2399310   2.5589310  20.4759310  72.1609310   3.7219310  20.1729310
  72.0469310   2.8889310  20.4089310  74.1339310   7.1549310  23.7269310
  74.9569310   7.6409310  23.6889310  74.1849310   6.6599310  24.5439310
  74.2459310   7.1539310  23.8259310  70.8249310  15.0299310  27.8029310
  70.2829310  15.4529310  28.4699310  71.7239310  15.2269310  28.0649310
  70.8699310  15.1099310  27.9219310  76.4289310   8.7919310  23.7289310
  75.9059310   9.4949310  24.1149310  76.4409310   8.9879310  22.7929310
  76.3639310   8.9069310  23.6589310  72.3659310   9.0949310  34.7229310
  72.3279310   9.4119310  33.8209310  71.4939310   8.7359310  34.8879310
  72.2489310   9.0889310  34.6289310  76.2739310  10.8349310  33.2979310
  75.4909310  11.2409310  32.9289310  75.9859310   9.9639310  33.5709310
  76.1369310  10.7749310  33.2859310  70.0119310  12.8469310  30.0409310
  70.6669310  13.2079310  29.4439310  69.3339310  12.4919310  29.4659310
  70.0089310  12.8479310  29.8909310  75.2999310   6.7919310  31.7769310
  75.6249310   5.9889310  32.1839310  74.4309310   6.5599310  31.4509310
  75.2299310   6.6599310  31.7869310  70.9159310   7.7259310  37.7459310
  71.7189310   8.2359310  37.6359310  70.4659310   8.1439310  38.4799310
  70.9609310   7.8449310  37.8259310  76.0369310   3.6199310  20.7469310
  75.5559310   2.8029310  20.6159310  76.4709310   3.7789310  19.9089310
  76.0309310   3.5359310  20.6229310  70.0009310   8.6569310  21.2049310
  70.7679310   8.3339310  21.6799310  69.2589310   8.4179310  21.7599310
  70.0039310   8.5849310  21.3369310  69.3389310   2.4129310  29.9009310
  70.1369310   2.0629310  29.5059310  69.3189310   2.0329310  30.7789310
  69.4379310   2.3189310  29.9629310  71.4239310   7.1999310  28.6139310
  72.3809310   7.1839310  28.5949310  71.1789310   6.3859310  29.0539310
  71.5149310   7.0939310  28.6679310  78.8009310  10.5629310  32.4619310
  79.1939310  11.3839310  32.7579310  77.8879310  10.6179310  32.7439310
  78.7349310  10.6749310  32.5359310  72.8249310   2.7239310  23.4359310
  72.7349310   2.4529310  22.5229310  71.9269310   2.8809310  23.7289310
  72.6979310   2.7099310  23.3569310  74.7709310   5.6399310  25.8359310
  74.9589310   4.8879310  25.2739310  75.6269310   6.0309310  26.0059310
  74.9039310   5.5939310  25.7859310  77.2209310  10.8469310  20.1189310
  78.0649310  10.8089310  20.5699310  77.4439310  11.0519310  19.2109310
  77.3579310  10.8679310  20.0609310  74.2719310   6.6369310  28.3879310
  74.5289310   6.2189310  27.5659310  74.3559310   5.9449310  29.0439310
  74.3159310   6.4949310  28.3669310  78.9739310  15.5059310  26.1859310
  78.7889310  14.6789310  25.7399310  78.6619310  16.1789310  25.5809310
  78.9099310  15.4859310  26.0509310  76.7639310  15.8859310  28.3589310
  76.7299310  15.1989310  29.0239310  77.2399310  15.4909310  27.6289310
  76.8199310  15.7479310  28.3509310  78.2749310   3.9949310  30.1629310
  77.8259310   3.2409310  30.5449310  78.9969310   3.6149310  29.6629310
  78.3099310   3.8499310  30.1479310  71.1959310   5.9669310  34.0119310
  70.5169310   6.6059310  34.2319310  70.7869310   5.1179310  34.1749310
  71.0559310   5.9399310  34.0609310  68.8029310   4.0469310  36.5809310
  68.2029310   4.7799310  36.7219310  69.3499310   4.0299310  37.3669310
  68.7959310   4.1389310  36.6999310  70.1589310   2.9479310  24.6239310
  70.5589310   3.5329310  25.2679310  69.6949310   3.5329310  24.0249310
  70.1509310   3.0979310  24.6299310  73.0349310   9.6629310  20.9529310
  73.1209310   9.6119310  20.0009310  72.4819310  10.4309310  21.1019310
  72.9749310   9.7549310  20.8499310  70.5489310   4.8839310  29.8119310
  69.7699310   5.3899310  30.0429310  70.2869310   3.9709310  29.9349310
  70.4159310   4.8319310  29.8569310  73.6449310   9.0409310  26.9179310
  73.5579310   9.8209310  27.4669310  73.7169310   8.3169310  27.5409310
  73.6429310   9.0479310  27.0679310  73.7469310   4.1819310  34.1019310
  73.6559310   4.0619310  33.1569310  73.0229310   4.7599310  34.3399310
  73.6429310   4.2409310  34.0109310  75.3719310   3.7439310  23.4399310
  75.7449310   3.6789310  22.5609310  74.4669310   3.4479310  23.3389310
  75.3039310   3.6969310  23.3149310  75.0709310  10.9009310  21.8739310
  74.3389310  10.4119310  21.4979310  75.7309310  10.9139310  21.1819310
  75.0609310  10.8399310  21.7379310  70.0169310  14.2459310  32.4449310
  69.7239310  13.9729310  31.5749310  69.7089310  15.1479310  32.5289310
  69.9399310  14.3259310  32.3439310  78.5619310   4.3119310  19.0639310
  78.5429310   4.9619310  19.7659310  78.9169310   3.5239310  19.4759310
  78.6049310   4.2949310  19.2059310  73.9319310  11.6099310  31.8429310
  73.3619310  12.2969310  32.1899310  73.4799310  10.7939310  32.0569310
  73.8009310  11.5939310  31.9149310  74.9119310  10.4839310  25.0369310
  74.2759310  10.0289310  25.5879310  74.4239310  11.2179310  24.6639310
  74.7689310  10.5199310  25.0599310  77.2019310  12.1249310  36.0239310
  76.8149310  11.7599310  35.2279310  76.5539310  12.7539310  36.3389310
  77.0689310  12.1579310  35.9629310  69.5619310  11.4789310  33.3929310
  69.1799310  12.3219310  33.6369310  70.3859310  11.7049310  32.9619310
  69.6179310  11.6159310  33.3689310  70.2099310   3.4629310  34.3399310
  69.6439310   3.8239310  33.6579310  69.7139310   3.5789310  35.1499310
  70.0739310   3.5239310  34.3559310  78.0259310  13.5069310  24.4859310
  77.7879310  12.6939310  24.9299310  77.2209310  13.7849310  24.0489310
  77.8929310  13.4389310  24.4869310  72.6269310   9.2209310  31.9149310
  72.1659310   9.5649310  31.1499310  72.7079310   8.2829310  31.7429310
  72.5779310   9.1449310  31.7949310  70.8229310   6.8619310  24.0999310
  71.7789310   6.8939310  24.1269310  70.5519310   7.7789310  24.1379310
  70.9109310   6.9829310  24.1079310  75.6629310   2.3209310  37.0429310
  74.8979310   1.9239310  37.4609310  75.4089310   3.2319310  36.8949310
  75.5319310   2.3869310  37.0779310  68.1109310  10.4649310  20.4159310
  68.7389310   9.9419310  20.9149310  68.6049310  10.7709310  19.6549310
  68.2549310  10.4369310  20.3829310  73.7829310  12.5489310  23.6869310
  73.0829310  12.9469310  23.1699310  74.2149310  11.9459310  23.0809310
  73.7489310  12.5229310  23.5429310  77.2019310   6.8759310  25.8279310
  77.7159310   6.2759310  25.2879310  76.9279310   7.5659310  25.2239310
  77.2319310   6.8869310  25.6819310  69.6889310  14.2309310  19.8739310
  70.2459310  13.4719310  20.0459310  70.2569310  14.9849310  20.0299310
  69.8329310  14.2299310  19.9159310  68.5829310   6.8499310  26.3159310
  69.1799310   7.1059310  25.6119310  68.8859310   7.3449310  27.0779310
  68.6979310   6.9459310  26.3229310  71.2639310  10.3569310  30.1209310
  71.5229310  11.0499310  29.5129310  70.3919310  10.6159310  30.4199310
  71.1859310  10.4789310  30.0809310  77.8819310   4.8579310  35.0069310
  77.1279310   4.5279310  34.5179310  77.6809310   4.6599310  35.9209310
  77.7599310   4.7899310  35.0609310  72.8029310  13.8309310  13.9979310
  71.8489310  13.7629310  13.9659310  72.9919310  14.1379310  14.8839310
  72.7049310  13.8619310  14.1069310  77.5679310  11.2749310   7.1609310
  77.3939310  11.4359310   8.0889310  76.8029310  10.7889310   6.8549310
  77.4479310  11.2329310   7.2409310  74.1389310   6.1719310   2.4919310
  73.9849310   6.6289310   3.3189310  74.8509310   5.5619310   2.6839310
  74.2099310   6.1519310   2.6219310  71.0259310  12.4279310   7.4549310
  71.0639310  13.3209310   7.1109310  70.2269310  12.4069310   7.9809310
  70.9289310  12.5399310   7.4779310  75.7369310  14.2179310   4.1439310
  74.9379310  13.6909310   4.1539310  76.0809310  14.1149310   3.2569310
  75.6789310  14.1369310   4.0319310  77.8469310   7.4419310  15.1369310
  77.7189310   6.5769310  15.5259310  78.2899310   7.2669310  14.3059310
  77.8869310   7.3089310  15.0799310  69.8439310   8.1089310  16.2869310
  68.9229310   7.8889310  16.1469310  69.9239310   8.2159310  17.2339310
  69.7359310   8.0939310  16.3899310  73.5459310   2.3779310   7.2639310
  73.1389310   2.3769310   6.3969310  73.0599310   3.0409310   7.7549310
  73.4319310   2.4629310   7.2159310  77.6329310   3.7639310   5.8129310
  76.8079310   3.7459310   5.3279310  77.3819310   3.5779310   6.7179310
  77.4949310   3.7379310   5.8669310  74.7469310  13.4289310  10.4299310
  74.4859310  13.0539310  11.2709310  75.4779310  12.8839310  10.1409310
  74.8069310  13.3109310  10.4999310  72.9849310  11.6219310   9.1449310
  72.2609310  11.9249310   8.5969310  73.5789310  12.3719310   9.1929310
  72.9689310  11.7569310   9.0809310  69.5339310   1.7759310  19.3349310
  69.3359310   1.8569310  18.4029310  68.7399310   2.0789310  19.7759310
  69.4069310   1.8249310  19.2719310  76.8849310  13.8479310   1.7759310
  77.3439310  13.0259310   1.9479310  77.5829310  14.4879310   1.6369310
  77.0329310  13.8249310   1.7799310  75.6079310   4.3389310  10.7579310
  76.4889310   4.6309310  10.9899310  75.6939310   4.0049310   9.8649310
  75.7319310   4.3339310  10.6729310  69.5019310  10.8019310  18.0919310
  68.7399310  11.3699310  17.9749310  69.7069310  10.4919310  17.2099310
  69.4299310  10.8349310  17.9639310  71.5729310  12.0969310  19.4289310
  72.0559310  12.6579310  18.8219310  71.1299310  11.4609310  18.8679310
  71.5779310  12.0879310  19.2799310  75.1989310  13.8329310  18.2269310
  75.7729310  13.7459310  18.9879310  75.1569310  14.7749310  18.0649310
  75.2669310  13.9419310  18.3029310  75.5539310   7.6869310  18.1279310
  75.3969310   6.7429310  18.0919310  75.4649310   7.9789310  17.2209310
  75.5219310   7.6029310  18.0069310  72.5799310  13.5839310  17.1419310
  72.3279310  14.4879310  17.3329310  73.4849310  13.5189310  17.4449310
  72.6639310  13.6919310  17.2049310  77.2159310   3.1679310   8.4469310
  77.3019310   2.3839310   8.9899310  77.6559310   3.8549310   8.9469310
  77.2829310   3.1559310   8.5799310  70.2909310  15.3899310   4.9659310
  69.5099310  15.2589310   4.4279310  70.2609310  16.3149310   5.2099310
  70.1869310  15.4919310   4.9279310  76.6439310  11.6559310   9.6559310
  76.1639310  10.8479310   9.8329310  77.3739310  11.6419310  10.2749310
  76.6759310  11.5509310   9.7579310  76.1869310   4.1569310  14.0429310
  75.3419310   3.8369310  14.3599310  76.6599310   3.3659310  13.7839310
  76.1389310   4.0149310  14.0509310  73.1139310   9.3429310  18.3769310
  73.9249310   8.8549310  18.2349310  72.8449310   9.6199310  17.5009310
  73.1829310   9.3159310  18.2459310  72.0219310  13.9149310   3.4999310
  71.4399310  14.4129310   4.0729310  72.2509310  14.5259310   2.7999310
  71.9769310  14.0569310   3.4839310  75.3759310   8.3829310  15.4049310
  76.2559310   8.0099310  15.3529310  74.8379310   7.8019310  14.8679310
  75.4199310   8.2609310  15.3299310  72.6589310   6.2179310  12.6799310
  72.2819310   6.0909310  13.5499310  72.0959310   5.7069310  12.0979310
  72.5389310   6.1369310  12.7169310  69.6489310   9.2939310   8.9559310
  70.0429310   9.2239310   8.0859310  70.2609310   8.8389310   9.5329310
  69.7779310   9.2269310   8.9179310  79.1199310   5.8379310   4.8069310
  78.4479310   5.1569310   4.8369310  79.1989310   6.0549310   3.8779310
  79.0439310   5.7789310   4.6919310  74.7399310   4.8119310  17.8759310
  74.6249310   4.5279310  16.9689310  73.8489310   4.9149310  18.2089310
  74.6109310   4.7889310  17.8019310  73.7849310   3.1389310  12.7219310
  73.1949310   2.3999310  12.5699310  74.3969310   3.1109310  11.9869310
  73.7879310   3.0409310  12.6079310  75.1699310   9.3309310  10.7539310
  75.1299310   8.3759310  10.7169310  74.7149310   9.5589310  11.5639310
  75.1069310   9.2379310  10.8529310  68.7529310   5.0859310   4.5729310
  69.4179310   5.6859310   4.9109310  67.9209310   5.5199310   4.7619310
  68.7319310   5.2179310   4.6409310  71.0859310   9.5309310   6.7749310
  71.7649310   9.2509310   7.3889310  71.1839310  10.4809310   6.7259310
  71.1849310   9.6169310   6.8479310  74.1339310   7.1549310   4.8669310
  74.9569310   7.6409310   4.8289310  74.1849310   6.6599310   5.6839310
  74.2459310   7.1539310   4.9659310  70.8249310  15.0299310   8.9429310
  70.2829310  15.4529310   9.6099310  71.7239310  15.2269310   9.2049310
  70.8699310  15.1099310   9.0619310  76.4289310   8.7919310   4.8689310
  75.9059310   9.4949310   5.2549310  76.4409310   8.9879310   3.9329310
  76.3639310   8.9069310   4.7989310  72.3659310   9.0949310  15.8629310
  72.3279310   9.4119310  14.9609310  71.4939310   8.7359310  16.0279310
  72.2489310   9.0889310  15.7689310  76.2739310  10.8349310  14.4379310
  75.4909310  11.2409310  14.0689310  75.9859310   9.9639310  14.7109310
  76.1369310  10.7749310  14.4259310  70.0119310  12.8469310  11.1809310
  70.6669310  13.2079310  10.5839310  69.3339310  12.4919310  10.6059310
  70.0089310  12.8479310  11.0309310  75.2999310   6.7919310  12.9169310
  75.6249310   5.9889310  13.3239310  74.4309310   6.5599310  12.5909310
  75.2299310   6.6599310  12.9269310  70.9159310   7.7259310  18.8859310
  71.7189310   8.2359310  18.7759310  70.4659310   8.1439310  19.6199310
  70.9609310   7.8449310  18.9659310  70.0009310   8.6569310   2.3449310
  70.7679310   8.3339310   2.8199310  69.2589310   8.4179310   2.8999310
  70.0039310   8.5849310   2.4769310  69.3389310   2.4129310  11.0409310
  70.1369310   2.0629310  10.6459310  69.3189310   2.0329310  11.9189310
  69.4379310   2.3189310  11.1029310  71.4239310   7.1999310   9.7539310
  72.3809310   7.1839310   9.7349310  71.1789310   6.3859310  10.1939310
  71.5149310   7.0939310   9.8079310  78.8009310  10.5629310  13.6019310
  79.1939310  11.3839310  13.8979310  77.8879310  10.6179310  13.8839310
  78.7349310  10.6749310  13.6759310  72.8249310   2.7239310   4.5759310
  72.7349310   2.4529310   3.6629310  71.9269310   2.8809310   4.8689310
  72.6979310   2.7099310   4.4969310  74.7709310   5.6399310   6.9759310
  74.9589310   4.8879310   6.4139310  75.6269310   6.0309310   7.1459310
  74.9039310   5.5939310   6.9259310  74.2719310   6.6369310   9.5279310
  74.5289310   6.2189310   8.7059310  74.3559310   5.9449310  10.1839310
  74.3159310   6.4949310   9.5069310  78.9739310  15.5059310   7.3259310
  78.7889310  14.6789310   6.8799310  78.6619310  16.1789310   6.7209310
  78.9099310  15.4859310   7.1909310  76.7639310  15.8859310   9.4989310
  76.7299310  15.1989310  10.1639310  77.2399310  15.4909310   8.7689310
  76.8199310  15.7479310   9.4909310  78.2749310   3.9949310  11.3029310
  77.8259310   3.2409310  11.6849310  78.9969310   3.6149310  10.8029310
  78.3099310   3.8499310  11.2879310  71.1959310   5.9669310  15.1519310
  70.5169310   6.6059310  15.3719310  70.7869310   5.1179310  15.3149310
  71.0559310   5.9399310  15.2009310  68.8029310   4.0469310  17.7209310
  68.2029310   4.7799310  17.8619310  69.3499310   4.0299310  18.5069310
  68.7959310   4.1389310  17.8399310  70.1589310   2.9479310   5.7639310
  70.5589310   3.5329310   6.4079310  69.6949310   3.5329310   5.1649310
  70.1509310   3.0979310   5.7699310  70.5489310   4.8839310  10.9519310
  69.7699310   5.3899310  11.1829310  70.2869310   3.9709310  11.0749310
  70.4159310   4.8319310  10.9969310  73.6449310   9.0409310   8.0579310
  73.5579310   9.8209310   8.6069310  73.7169310   8.3169310   8.6809310
  73.6429310   9.0479310   8.2079310  73.7469310   4.1819310  15.2419310
  73.6559310   4.0619310  14.2969310  73.0229310   4.7599310  15.4799310
  73.6429310   4.2409310  15.1509310  75.3719310   3.7439310   4.5799310
  75.7449310   3.6789310   3.7009310  74.4669310   3.4479310   4.4789310
  75.3039310   3.6969310   4.4549310  75.0709310  10.9009310   3.0139310
  74.3389310  10.4119310   2.6379310  75.7309310  10.9139310   2.3219310
  75.0609310  10.8399310   2.8779310  70.0169310  14.2459310  13.5849310
  69.7239310  13.9729310  12.7149310  69.7089310  15.1479310  13.6689310
  69.9399310  14.3259310  13.4839310  73.9319310  11.6099310  12.9829310
  73.3619310  12.2969310  13.3299310  73.4799310  10.7939310  13.1969310
  73.8009310  11.5939310  13.0549310  74.9119310  10.4839310   6.1769310
  74.2759310  10.0289310   6.7279310  74.4239310  11.2179310   5.8039310
  74.7689310  10.5199310   6.1999310  77.2019310  12.1249310  17.1639310
  76.8149310  11.7599310  16.3679310  76.5539310  12.7539310  17.4789310
  77.0689310  12.1579310  17.1029310  69.5619310  11.4789310  14.5329310
  69.1799310  12.3219310  14.7769310  70.3859310  11.7049310  14.1019310
  69.6179310  11.6159310  14.5089310  70.2099310   3.4629310  15.4799310
  69.6439310   3.8239310  14.7979310  69.7139310   3.5789310  16.2899310
  70.0739310   3.5239310  15.4959310  78.0259310  13.5069310   5.6259310
  77.7879310  12.6939310   6.0699310  77.2209310  13.7849310   5.1889310
  77.8929310  13.4389310   5.6269310  72.6269310   9.2209310  13.0549310
  72.1659310   9.5649310  12.2899310  72.7079310   8.2829310  12.8829310
  72.5779310   9.1449310  12.9349310  70.8229310   6.8619310   5.2399310
  71.7789310   6.8939310   5.2669310  70.5519310   7.7789310   5.2779310
  70.9109310   6.9829310   5.2479310  75.6629310   2.3209310  18.1829310
  74.8979310   1.9239310  18.6009310  75.4089310   3.2319310  18.0349310
  75.5319310   2.3869310  18.2179310  73.7829310  12.5489310   4.8269310
  73.0829310  12.9469310   4.3099310  74.2149310  11.9459310   4.2209310
  73.7489310  12.5229310   4.6829310  77.2019310   6.8759310   6.9679310
  77.7159310   6.2759310   6.4279310  76.9279310   7.5659310   6.3639310
  77.2319310   6.8869310   6.8219310  68.5829310   6.8499310   7.4559310
  69.1799310   7.1059310   6.7519310  68.8859310   7.3449310   8.2179310
  68.6979310   6.9459310   7.4629310  71.2639310  10.3569310  11.2609310
  71.5229310  11.0499310  10.6529310  70.3919310  10.6159310  11.5599310
  71.1859310  10.4789310  11.2209310  77.8819310   4.8579310  16.1469310
  77.1279310   4.5279310  15.6579310  77.6809310   4.6599310  17.0609310
  77.7599310   4.7899310  16.2009310  56.5439310  56.2459310  70.3179310
  56.7719310  56.2179310  71.2469310  55.9149310  55.5339310  70.2049310
  56.4929310  56.1509310  70.4229310  54.4599310  54.5319310  69.8239310
  53.8999310  54.9799310  70.4579310  54.3139310  53.6009310  69.9909310
  54.3699310  54.4699310  69.9259310  55.2789310  62.7729310  59.0719310
  55.1249310  63.2299310  59.8989310  55.9909310  62.1629310  59.2639310
  55.3499310  62.7529310  59.2019310  58.6739310  57.9819310  69.6769310
  58.0709310  57.3409310  70.0519310  59.4629310  57.9129310  70.2149310
  58.6979310  57.8919310  69.7939310  61.0969310  57.8079310  70.9449310
  61.2749310  56.9259310  71.2709310  61.4159310  58.3879310  71.6369310
  61.1609310  57.7689310  71.0759310  60.7849310  65.8039310  63.1909310
  60.3589310  65.1969310  62.5869310  60.1219310  66.4709310  63.3689310
  60.6459310  65.8119310  63.1369310  66.5369310  56.4359310  62.4439310
  66.6049310  55.4889310  62.3199310  67.4059310  56.7009310  62.7449310
  66.6569310  56.3489310  62.4669310  67.6559310  60.7269310  64.2849310
  66.8769310  60.8369310  64.8299310  67.9999310  61.6129310  64.1759310
  67.5999310  60.8539310  64.3409310  58.7519310  56.8549310  58.4329310
  58.4859310  56.3919310  59.2279310  58.7679310  56.1779310  57.7569310
  58.7199310  56.7089310  58.4489310  58.9869310  64.0429310  71.7169310
  58.8589310  63.1779310  72.1059310  59.4299310  63.8679310  70.8859310
  59.0269310  63.9099310  71.6599310  61.8629310  64.9949310  58.7359310
  62.6329310  65.0159310  59.3029310  62.1819310  64.6279310  57.9119310
  62.0019310  64.9509310  58.7029310  67.5989310  64.6319310  60.4659310
  67.2329310  65.2729310  61.0759310  66.8339310  64.2099310  60.0739310
  67.4539310  64.6599310  60.4939310  50.1109310  58.3729310  70.2739310
  50.3879310  58.9419310  70.9919310  49.5089310  57.7499310  70.6809310
  50.0699310  58.3659310  70.4179310  65.5809310  66.2319310  57.4829310
  65.6229310  66.0979310  56.5359310  66.4669310  66.4989310  57.7259310
  65.6999310  66.2489310  57.3929310  50.9839310  64.7099310  72.8669310
  50.0629310  64.4899310  72.7269310  51.0639310  64.8169310  73.8139310
  50.8759310  64.6949310  72.9699310  65.9239310  56.6619310  59.5709310
  66.0559310  56.5179310  60.5079310  65.0559310  57.0609310  59.5109310
  65.8299310  56.6939310  59.6839310  54.6859310  58.9789310  63.8439310
  54.2789310  58.9779310  62.9769310  54.1999310  59.6419310  64.3349310
  54.5719310  59.0639310  63.7959310  52.8049310  55.3749310  71.8619310
  53.0119310  56.2729310  72.1189310  52.4489310  54.9739310  72.6549310
  52.7859310  55.4379310  71.9959310  54.1129310  56.1659310  62.5619310
  53.3549310  56.1529310  63.1469310  54.6449310  55.4219310  62.8429310
  54.0839310  56.0689310  62.6729310  61.1529310  59.8639310  72.8609310
  61.7389310  60.1769310  73.5499310  60.4269310  60.4889310  72.8609310
  61.1349310  59.9839310  72.9489310  58.7729310  60.3649310  62.3929310
  57.9479310  60.3469310  61.9079310  58.5219310  60.1789310  63.2979310
  58.6349310  60.3389310  62.4469310  56.7479310  60.9399310  67.3379310
  57.6289310  61.2319310  67.5699310  56.8339310  60.6059310  66.4449310
  56.8719310  60.9349310  67.2529310  61.0449310  56.7589310  65.5219310
  60.0929310  56.6959310  65.5929310  61.3729310  56.0309310  66.0499310
  60.9649310  56.6579310  65.5989310  66.1739310  64.7669310  67.6439310
  66.6139310  65.2739310  68.3269310  65.5019310  64.2699310  68.1099310
  66.1449310  64.7679310  67.7909310  67.3889310  66.5349310  69.8719310
  66.6749310  67.1399310  69.6729310  68.1049310  67.0979310  70.1689310
  67.3899310  66.6839310  69.8849310  63.5239310  58.0839310  59.3859310
  63.6279310  58.4279310  60.2729310  63.3939310  58.8599310  58.8409310
  63.5209310  58.2269310  59.4299310  66.1659310  58.9319310  66.7129310
  67.0779310  58.9429310  67.0059310  66.1659310  58.3469310  65.9549310
  66.2829310  58.8579310  66.6539310  64.0109310  63.2689310  68.5639310
  63.1359310  63.0119310  68.2739310  64.3629310  62.4859310  68.9879310
  63.9439310  63.1359310  68.5809310  55.7529310  55.2579310  57.3729310
  56.0949310  55.2669310  58.2669310  55.2679310  56.0799310  57.2949310
  55.7349310  55.3649310  57.4769310  50.9219310  55.1739310  67.2769310
  51.7559310  55.6279310  67.1529310  50.3339310  55.5729310  66.6369310
  50.9539310  55.2829310  67.1799310  58.3559310  59.7689310  65.0269310
  58.4419310  58.9849310  65.5699310  58.7959310  60.4559310  65.5269310
  58.4229310  59.7569310  65.1599310  67.0179310  57.3869310  74.3669310
  66.1189310  57.0589310  74.3619310  67.3429310  57.2099310  73.4849310
  66.9439310  57.3219310  74.2539310  65.4519310  53.9079310  59.2409310
  65.5799310  54.8229310  58.9889310  64.5029310  53.8129310  59.3259310
  65.3469310  54.0129310  59.2199310  68.6269310  55.2459310  57.2419310
  68.4509310  56.0869310  56.8209310  67.8179310  54.7469310  57.1279310
  68.5009310  55.2899310  57.1739310  71.1959310  61.1739310  64.6199310
  71.2099310  60.8609310  65.5249310  71.1469310  62.1269310  64.6969310
  71.1919310  61.2559310  64.7459310  60.5889310  59.1099310  58.5029310
  59.9629310  58.3859310  58.5269310  60.8069310  59.2689310  59.4209310
  60.5369310  59.0379310  58.6229310  57.3269310  60.7579310  70.6229310
  56.4819310  60.4379310  70.9399310  57.7999310  59.9669310  70.3639310
  57.2789310  60.6159310  70.6309310  67.0549310  56.6249310  71.7979310
  66.1889310  56.4609310  71.4269310  67.6369310  56.0329310  71.3199310
  67.0189310  56.5279310  71.6889310  66.7609310  62.0749310  58.5039310
  66.3039310  61.8339310  59.3099310  67.6869310  61.9349310  58.7029310
  66.8209310  62.0259310  58.6329310  56.5159310  64.9839310  71.9849310
  57.3959310  64.6109310  71.9329310  55.9779310  64.4029310  71.4479310
  56.5599310  64.8619310  71.9099310  64.8859310  57.7919310  64.0919310
  65.5819310  57.4059310  63.5589310  64.2759310  57.0699310  64.2469310
  64.8969310  57.6499310  64.0429310  62.9599310  63.2409310  71.6339310
  62.4029310  62.8469310  70.9619310  62.3839310  63.8509310  72.0939310
  62.8149310  63.2689310  71.6069310  60.7869310  59.2279310  61.1669310
  59.9639310  59.5109310  61.5629310  61.4649310  59.6139310  61.7219310
  60.7689310  59.3129310  61.2889310  53.7989310  62.8189310  69.2599310
  53.4219310  62.6919310  70.1299310  53.2359310  62.3079310  68.6779310
  53.6789310  62.7379310  69.2969310  62.8059310  64.3289310  64.7149310
  63.3509310  64.8299310  65.3219310  62.1119310  64.9359310  64.4579310
  62.7869310  64.4699310  64.7599310  50.7889310  65.8949310  65.5359310
  51.1829310  65.8249310  64.6659310  51.4009310  65.4399310  66.1129310
  50.9179310  65.8279310  65.4979310  65.5099310  61.5749310  60.9079310
  65.4669310  62.1939310  61.6379310  65.1439310  60.7639310  61.2599310
  65.4579310  61.5509310  61.0469310  60.2599310  62.4389310  61.3869310
  59.5879310  61.7579310  61.4169310  60.3389310  62.6559310  60.4579310
  60.1839310  62.3799310  61.2719310  54.9249310  59.7399310  69.3019310
  54.3349310  59.0009310  69.1499310  55.5369310  59.7119310  68.5669310
  54.9279310  59.6419310  69.1879310  56.3099310  65.9319310  67.3339310
  56.2699310  64.9769310  67.2969310  55.8549310  66.1599310  68.1439310
  56.2469310  65.8389310  67.4329310  64.2749310  62.5849310  74.0159310
  63.5839310  61.9449310  74.1839310  64.0669310  62.9409310  73.1529310
  64.1599310  62.5479310  73.9269310  49.8929310  61.6869310  61.1529310
  50.5579310  62.2869310  61.4909310  49.0609310  62.1209310  61.3419310
  49.8719310  61.8189310  61.2209310  52.2259310  66.1319310  63.3549310
  52.9049310  65.8519310  63.9689310  52.3239310  67.0819310  63.3059310
  52.3249310  66.2179310  63.4279310  57.6399310  64.8679310  58.4419310
  57.2569310  64.5589310  57.6209310  57.8789310  65.7789310  58.2669310
  57.6219310  64.9449310  58.3149310  51.8959310  56.3229310  64.1199310
  51.6579310  55.5039310  63.6859310  51.1349310  56.8909310  63.9929310
  51.7679310  56.2909310  64.0479310  56.4669310  55.1379310  60.1239310
  56.7119310  54.2629310  60.4249310  56.2519310  55.6149310  60.9249310
  56.4709310  55.0869310  60.2649310  61.6989310  56.8869310  62.6619310
  61.4049310  57.6019310  62.0979310  61.4279310  57.1479310  63.5419310
  61.6269310  57.0119310  62.7019310  65.6519310  67.4389310  64.3629310
  64.7369310  67.4489310  64.0799310  65.7739310  66.5709310  64.7479310
  65.5499310  67.3289310  64.3759310  53.3049310  59.4029310  58.1579310
  52.3799310  59.1599310  58.1959310  53.3009310  60.3229310  57.8929310
  53.1869310  59.4899310  58.1289310  55.2739310  63.7559310  61.4469310
  56.0969310  64.2419310  61.4089310  55.3249310  63.2609310  62.2639310
  55.3859310  63.7549310  61.5459310  57.5689310  65.3929310  61.4489310
  57.0459310  66.0959310  61.8349310  57.5809310  65.5889310  60.5129310
  57.5039310  65.5079310  61.3789310  64.6119310  60.2599310  57.6129310
  65.0899310  59.9069310  56.8639310  65.1139310  61.0319310  57.8759310
  64.7369310  60.3139310  57.5509310  53.5059310  65.6959310  72.4429310
  53.4679310  66.0129310  71.5409310  52.6339310  65.3369310  72.6079310
  53.3889310  65.6899310  72.3489310  66.4639310  51.3399310  67.0119310
  66.6099310  51.7449310  67.8669310  65.5189310  51.4079310  66.8729310
  66.3619310  51.3999310  67.1039310  56.4399310  63.3929310  69.4969310
  56.7649310  62.5899310  69.9039310  55.5709310  63.1609310  69.1709310
  56.3699310  63.2609310  69.5069310  62.5519310  61.4749310  64.7259310
  63.0499310  61.2679310  63.9349310  62.7359310  62.3999310  64.8899310
  62.6389310  61.5669310  64.6459310  57.1769310  60.2209310  58.4669310
  56.6959310  59.4039310  58.3359310  57.6109310  60.3799310  57.6289310
  57.1709310  60.1369310  58.3429310  51.1409310  65.2579310  58.9249310
  51.9079310  64.9349310  59.3999310  50.3989310  65.0189310  59.4799310
  51.1439310  65.1859310  59.0569310  50.4789310  59.0139310  67.6209310
  51.2769310  58.6639310  67.2259310  50.4589310  58.6339310  68.4989310
  50.5779310  58.9199310  67.6829310  59.8729310  62.0709310  65.3489310
  59.4659310  62.8309310  64.9329310  60.7349310  62.0059310  64.9389310
  59.9309310  62.1599310  65.2429310  64.4099310  63.3099310  62.8309310
  65.0839310  63.7219310  63.3709310  63.5999310  63.7559310  63.0769310
  64.3929310  63.4199310  62.9309310  52.5639310  63.8009310  66.3339310
  53.5209310  63.7849310  66.3149310  52.3189310  62.9869310  66.7739310
  52.6549310  63.6949310  66.3879310  62.8669310  57.8109310  68.8729310
  62.4129310  58.2529310  68.1549310  62.3249310  57.9859310  69.6419310
  62.7399310  57.8899310  68.8789310  68.0319310  62.7389310  67.8169310
  67.6429310  62.2649310  68.5529310  67.4969310  63.5279310  67.7309310
  67.9139310  62.7789310  67.8999310  61.4059310  59.2869310  66.6829310
  62.0319310  59.7369310  66.1159310  61.2639310  58.4399310  66.2589310
  61.4679310  59.2359310  66.5559310  61.4299310  56.0319310  59.4389310
  60.6709310  56.2799310  58.9109310  61.9849310  56.8119310  59.4399310
  61.4039310  56.1639310  59.3719310  53.9649310  59.3249310  61.1559310
  53.8749310  59.0539310  60.2429310  53.0669310  59.4819310  61.4489310
  53.8379310  59.3109310  61.0769310  63.5519310  55.2159310  63.9519310
  62.8899310  55.6219310  63.3919310  64.2469310  54.9529310  63.3489310
  63.5559310  55.2349310  63.8029310  65.1649310  60.4479310  69.3309310
  64.8999310  59.7959310  69.9809310  65.3839310  59.9349310  68.5529310
  65.1589310  60.2989310  69.3149310  55.9109310  62.2409310  63.5559310
  56.0989310  61.4889310  62.9939310  56.7669310  62.6319310  63.7259310
  56.0439310  62.1949310  63.5059310  57.5669310  57.1009310  72.7959310
  58.4889310  57.1769310  73.0399310  57.1149310  57.7179310  73.3709310
  57.6269310  57.1889310  72.8999310  54.5579310  54.1109310  65.7149310
  54.7289310  55.0319310  65.9139310  55.1239310  53.6269310  66.3159310
  54.6519310  54.1669310  65.8169310  58.3609310  67.4479310  57.8389310
  59.2049310  67.4099310  58.2899310  58.5839310  67.6529310  56.9309310
  58.4979310  67.4689310  57.7809310  55.4119310  63.2379310  66.1079310
  55.6689310  62.8199310  65.2859310  55.4959310  62.5459310  66.7639310
  55.4559310  63.0959310  66.0869310  67.5869310  61.5279310  70.7289310
  66.6909310  61.2029310  70.6419310  67.4869310  62.4229310  71.0539310
  67.4589310  61.6009310  70.7599310  59.7829310  63.2149310  58.7669310
  60.5129310  63.8349310  58.7559310  59.0009310  63.7659310  58.7359310
  59.7759310  63.3649310  58.7609310  59.4149310  60.5959310  67.8829310
  58.9659310  59.8419310  68.2649310  60.1369310  60.2159310  67.3829310
  59.4499310  60.4509310  67.8679310  60.9499310  64.7199310  69.5949310
  60.6739310  65.5439310  69.9969310  61.9009310  64.7069310  69.7039310
  61.0369310  64.8239310  69.6599310  56.4379310  57.3329310  61.8659310
  56.2899310  58.2759310  61.7879310  55.6459310  57.0009310  62.2899310
  56.3179310  57.4109310  61.9099310  55.6939310  57.8219310  58.4609310
  54.7769310  57.6069310  58.6269310  56.1689310  57.4339310  59.1959310
  55.6369310  57.7449310  58.5759310  52.3359310  62.5679310  71.7319310
  51.6569310  63.2069310  71.9519310  51.9269310  61.7189310  71.8949310
  52.1959310  62.5409310  71.7809310  50.4839310  55.4769310  70.3139310
  51.3459310  55.4379310  70.7279310  50.6699310  55.6269310  69.3869310
  50.6179310  55.4909310  70.2479310  61.4009310  63.0099310  67.6809310
  61.1329310  63.6529310  68.3379310  60.6019310  62.8279310  67.1849310
  61.2639310  63.0689310  67.7009310  51.2989310  59.5489310  62.3439310
  51.6989310  60.1339310  62.9879310  50.8349310  60.1339310  61.7449310
  51.2909310  59.6989310  62.3499310  61.3779310  61.3439310  70.2429310
  61.2149310  61.6529310  69.3519310  60.5169310  61.0799310  70.5659310
  61.2469310  61.3499310  70.1709310  61.5999310  55.5649310  74.3809310
  61.5969310  55.2749310  73.4689310  60.9279310  56.2459310  74.4179310
  61.5129310  55.6149310  74.2689310  53.2589310  54.2279310  58.3889310
  53.2599310  54.9699310  58.9929310  53.7629310  54.5319310  57.6349310
  53.3239310  54.3619310  58.3699310  54.1749310  66.2639310  58.6729310
  54.2609310  66.2129310  57.7209310  53.6219310  67.0319310  58.8219310
  54.1149310  66.3559310  58.5699310  61.3099310  65.0069310  72.7789310
  60.4919310  64.8509310  72.3079310  61.3579310  65.9589310  72.8679310
  61.2119310  65.1089310  72.7299310  65.6599310  59.7029310  74.0099310
  66.3729310  59.0709310  74.1049310  66.0999310  60.5399310  73.8639310
  65.8069310  59.7289310  74.0029310  51.6889310  61.4849310  67.5319310
  50.9099310  61.9909310  67.7629310  51.4269310  60.5719310  67.6549310
  51.5559310  61.4329310  67.5769310  54.7849310  65.6419310  64.6379310
  54.6979310  66.4219310  65.1869310  54.8569310  64.9179310  65.2609310
  54.7829310  65.6489310  64.7879310  50.4159310  56.7259310  59.8429310
  50.3589310  56.4719310  58.9219310  49.8679310  57.5079310  59.9109310
  50.3389310  56.7939310  59.7339310  54.8869310  60.7829310  71.8219310
  54.7959310  60.6629310  70.8769310  54.1629310  61.3609310  72.0599310
  54.7829310  60.8419310  71.7309310  55.9689310  54.2989310  63.2739310
  55.5639310  53.9679310  64.0759310  56.0759310  53.5249310  62.7219310
  55.9309310  54.1579310  63.3059310  56.5119310  60.3449310  61.1599310
  56.8849310  60.2799310  60.2809310  55.6069310  60.0489310  61.0589310
  56.4439310  60.2979310  61.0349310  56.2109310  67.5019310  59.5939310
  55.4789310  67.0129310  59.2179310  56.8709310  67.5149310  58.9019310
  56.2009310  67.4409310  59.4579310  58.6569310  57.2419310  63.5449310
  57.8049310  57.1039310  63.1329310  58.7069310  58.1889310  63.6809310
  58.5549310  57.3459310  63.5099310  53.5289310  57.9099310  72.7359310
  54.3199310  57.9429310  72.1989310  53.1689310  58.7959310  72.6879310
  53.5839310  58.0269310  72.6609310  59.7019310  60.9129310  56.7839310
  59.6829310  61.5629310  57.4859310  60.0569310  60.1249310  57.1959310
  59.7449310  60.8959310  56.9259310  64.6849310  56.1629310  74.2049310
  64.7459310  55.8159310  73.3149310  63.7449310  56.2109310  74.3789310
  64.5719310  56.1249310  74.1129310  59.3749310  55.4159310  61.6359310
  59.1499310  56.2009310  62.1349310  60.2739310  55.5679310  61.3439310
  59.4619310  55.5359310  61.6629310  64.8019310  55.1359310  66.5059310
  65.6729310  54.7429310  66.5629310  64.7029310  55.3669310  65.5829310
  64.9009310  55.1149310  66.3949310  61.7099310  55.4029310  71.6399310
  61.4499310  54.6269310  71.1429310  62.6659310  55.4079310  71.5919310
  61.7989310  55.3039310  71.5699310  64.8269310  59.0009310  61.7539310
  64.6059310  58.7509310  62.6519310  65.6429310  58.5349310  61.5709310
  64.9029310  58.9089310  61.8459310  58.6299310  57.5509310  66.9209310
  57.7789310  57.1199310  66.8339310  58.7289310  57.6979310  67.8619310
  58.5329310  57.5149310  67.0299310  67.5179310  59.0249310  59.5899310
  66.6949310  58.5379310  59.5419310  67.2659310  59.8889310  59.9179310
  67.3809310  59.0729310  59.6259310  64.5749310  66.3579310  73.6089310
  63.9349310  65.8249310  74.0809310  64.5369310  66.0349310  72.7079310
  64.4879310  66.2479310  73.5539310  52.6049310  57.7059310  66.5349310
  52.5109310  57.2389310  65.7049310  53.4279310  57.3829310  66.8999310
  52.6979310  57.6049310  66.4759310  67.2419310  64.1949310  71.4259310
  66.3509310  64.4109310  71.7039310  67.5189310  64.9479310  70.9039310
  67.1629310  64.3189310  71.3949310  66.3099310  66.2169310  61.8579310
  66.3319310  66.3329310  62.8079310  66.4829310  67.0899310  61.5069310
  66.3349310  66.3439310  61.9349310  54.7679310  56.9639310  67.7909310
  55.2199310  56.3849310  68.4049310  55.3309310  56.9789310  67.0179310
  54.8979310  56.8919310  67.7709310  51.3499310  60.0639310  72.0599310
  50.7839310  60.4249310  71.3779310  50.8539310  60.1799310  72.8699310
  51.2139310  60.1249310  72.0759310  64.6689310  65.2339310  71.2099310
  64.0589310  64.4979310  71.2659310  64.2369310  65.8579310  70.6269310
  64.5359310  65.2189310  71.1429310  53.7669310  65.8219310  69.6349310
  53.3059310  66.1659310  68.8699310  53.8479310  64.8839310  69.4629310
  53.7179310  65.7459310  69.5149310  53.3219310  56.7529310  59.7909310
  53.6299310  56.8179310  60.6949310  52.4039310  56.4949310  59.8699310
  53.2439310  56.7279310  59.9169310  62.6309310  61.0139310  62.1749310
  63.2509310  61.4579310  61.5959310  61.8209310  61.5179310  62.0899310
  62.6069310  61.1359310  62.0899310  49.2509310  67.0659310  58.1359310
  49.8789310  66.5429310  58.6349310  49.7449310  67.3719310  57.3749310
  49.3949310  67.0379310  58.1029310  63.5239310  67.0929310  69.2289310
  63.3509310  67.0159310  68.2909310  64.3069310  67.6399310  69.2839310
  63.6019310  67.1529310  69.1159310  58.3419310  63.4769310  63.5479310
  58.8559310  62.8769310  63.0079310  58.0679310  64.1669310  62.9439310
  58.3719310  63.4879310  63.4019310  64.3839310  56.7059310  71.1069310
  64.0969310  57.5319310  71.4979310  64.1609310  56.7899310  70.1799310
  64.3179310  56.8229310  71.0389310  68.3989310  58.0419310  63.5929310
  68.9809310  58.5269310  63.0069310  67.8329310  58.7119310  63.9759310
  68.4009310  58.1899310  63.5669310  56.1179310  56.8609310  65.4589310
  55.9399310  57.4509310  64.7269310  56.6029310  56.1339310  65.0689310
  56.1569310  56.8439310  65.3159310  52.4039310  66.9579310  67.8409310
  52.6629310  67.6509310  67.2329310  51.5319310  67.2169310  68.1399310
  52.3259310  67.0799310  67.8009310  66.0919310  64.5479310  64.8219310
  66.9449310  64.2069310  64.5519310  66.1139310  64.5189310  65.7779310
  66.2039310  64.4999310  64.9089310  59.0219310  61.4589310  72.7269310
  58.2679310  61.1289310  72.2379310  58.8209310  61.2609310  73.6409310
  58.8999310  61.3909310  72.7809310  68.1679310  54.5739310  64.3299310
  67.5719310  54.2239310  64.9919310  68.8859310  53.9419310  64.2949310
  68.1839310  54.4489310  64.4099310  64.2379310  65.2189310  60.0369310
  64.6339310  65.5599310  60.8389310  64.7289310  65.6379310  59.3299310
  64.3509310  65.3159310  60.0489310  63.9669310  59.3049310  71.9989310
  64.6599310  59.4989310  72.6309310  63.3309310  60.0109310  72.1169310
  63.9739310  59.4199310  72.0949310  56.5439310  56.2459310  51.4579310
  56.7719310  56.2179310  52.3869310  55.9149310  55.5339310  51.3449310
  56.4929310  56.1509310  51.5629310  58.6739310  57.9819310  50.8169310
  58.0709310  57.3409310  51.1919310  59.4629310  57.9129310  51.3549310
  58.6979310  57.8919310  50.9339310  59.2119310  54.4189310  57.0949310
  60.1039310  54.1899310  56.8309310  58.6899310  54.2979310  56.3019310
  59.2599310  54.3749310  56.9599310  61.0969310  57.8079310  52.0849310
  61.2749310  56.9259310  52.4109310  61.4159310  58.3879310  52.7769310
  61.1609310  57.7689310  52.2159310  60.7849310  65.8039310  44.3309310
  60.3589310  65.1969310  43.7269310  60.1219310  66.4709310  44.5089310
  60.6459310  65.8119310  44.2769310  66.5369310  56.4359310  43.5839310
  66.6049310  55.4889310  43.4599310  67.4059310  56.7009310  43.8849310
  66.6569310  56.3489310  43.6069310  67.6559310  60.7269310  45.4249310
  66.8769310  60.8369310  45.9699310  67.9999310  61.6129310  45.3159310
  67.5999310  60.8539310  45.4809310  58.7519310  56.8549310  39.5729310
  58.4859310  56.3919310  40.3679310  58.7679310  56.1779310  38.8969310
  58.7199310  56.7089310  39.5889310  58.9869310  64.0429310  52.8569310
  58.8589310  63.1779310  53.2459310  59.4299310  63.8679310  52.0259310
  59.0269310  63.9099310  52.7999310  61.8629310  64.9949310  39.8759310
  62.6329310  65.0159310  40.4429310  62.1819310  64.6279310  39.0519310
  62.0019310  64.9509310  39.8429310  67.5989310  64.6319310  41.6059310
  67.2329310  65.2729310  42.2159310  66.8339310  64.2099310  41.2139310
  67.4539310  64.6599310  41.6339310  50.1109310  58.3729310  51.4139310
  50.3879310  58.9419310  52.1319310  49.5089310  57.7499310  51.8209310
  50.0699310  58.3659310  51.5579310  65.5809310  66.2319310  38.6229310
  65.6229310  66.0979310  37.6759310  66.4669310  66.4989310  38.8659310
  65.6999310  66.2489310  38.5329310  50.9839310  64.7099310  54.0069310
  50.0629310  64.4899310  53.8669310  51.0639310  64.8169310  54.9539310
  50.8759310  64.6949310  54.1099310  65.9239310  56.6619310  40.7109310
  66.0559310  56.5179310  41.6479310  65.0559310  57.0609310  40.6509310
  65.8299310  56.6939310  40.8239310  54.6859310  58.9789310  44.9839310
  54.2789310  58.9779310  44.1169310  54.1999310  59.6419310  45.4749310
  54.5719310  59.0639310  44.9359310  52.8049310  55.3749310  53.0019310
  53.0119310  56.2729310  53.2589310  52.4489310  54.9739310  53.7949310
  52.7859310  55.4379310  53.1359310  54.1129310  56.1659310  43.7019310
  53.3549310  56.1529310  44.2869310  54.6449310  55.4219310  43.9829310
  54.0839310  56.0689310  43.8129310  61.1529310  59.8639310  54.0009310
  61.7389310  60.1769310  54.6899310  60.4269310  60.4889310  54.0009310
  61.1349310  59.9839310  54.0889310  58.7729310  60.3649310  43.5329310
  57.9479310  60.3469310  43.0479310  58.5219310  60.1789310  44.4379310
  58.6349310  60.3389310  43.5869310  50.6739310  58.3769310  57.0549310
  50.4759310  58.4579310  56.1229310  49.8799310  58.6799310  57.4959310
  50.5469310  58.4259310  56.9919310  53.5979310  61.9869310  38.2029310
  52.9949310  62.7239310  38.1069310  54.2269310  62.2769310  38.8639310
  53.6009310  62.1179310  38.2749310  61.0449310  56.7589310  46.6619310
  60.0929310  56.6959310  46.7329310  61.3729310  56.0309310  47.1899310
  60.9649310  56.6579310  46.7389310  66.1739310  64.7669310  48.7839310
  66.6139310  65.2739310  49.4669310  65.5019310  64.2699310  49.2499310
  66.1449310  64.7679310  48.9309310  67.3889310  66.5349310  51.0119310
  66.6749310  67.1399310  50.8129310  68.1049310  67.0979310  51.3089310
  67.3899310  66.6839310  51.0249310  56.6939310  64.2879310  55.8479310
  56.5369310  63.3439310  55.8119310  56.6049310  64.5799310  54.9409310
  56.6619310  64.2039310  55.7269310  63.5239310  58.0839310  40.5259310
  63.6279310  58.4279310  41.4129310  63.3939310  58.8599310  39.9809310
  63.5209310  58.2269310  40.5699310  66.1659310  58.9319310  47.8529310
  67.0779310  58.9429310  48.1459310  66.1659310  58.3469310  47.0949310
  66.2829310  58.8579310  47.7939310  64.0109310  63.2689310  49.7039310
  63.1359310  63.0119310  49.4139310  64.3629310  62.4859310  50.1279310
  63.9439310  63.1359310  49.7209310  55.7529310  55.2579310  38.5129310
  56.0949310  55.2669310  39.4069310  55.2679310  56.0799310  38.4349310
  55.7349310  55.3649310  38.6169310  50.9219310  55.1739310  48.4169310
  51.7559310  55.6279310  48.2929310  50.3339310  55.5729310  47.7769310
  50.9539310  55.2829310  48.3199310  52.0209310  54.3069310  55.4289310
  51.1879310  53.8799310  55.6299310  51.9879310  55.1339310  55.9089310
  51.9099310  54.3579310  55.5159310  58.3559310  59.7689310  46.1669310
  58.4419310  58.9849310  46.7099310  58.7959310  60.4559310  46.6669310
  58.4229310  59.7569310  46.2999310  67.0179310  57.3869310  55.5069310
  66.1189310  57.0589310  55.5019310  67.3429310  57.2099310  54.6249310
  66.9439310  57.3219310  55.3939310  65.4519310  53.9079310  40.3809310
  65.5799310  54.8229310  40.1289310  64.5029310  53.8129310  40.4659310
  65.3469310  54.0129310  40.3599310  68.6269310  55.2459310  38.3819310
  68.4509310  56.0869310  37.9609310  67.8179310  54.7469310  38.2679310
  68.5009310  55.2899310  38.3139310  71.1959310  61.1739310  45.7599310
  71.2099310  60.8609310  46.6649310  71.1469310  62.1269310  45.8369310
  71.1919310  61.2559310  45.8859310  60.5889310  59.1099310  39.6429310
  59.9629310  58.3859310  39.6669310  60.8069310  59.2689310  40.5609310
  60.5369310  59.0379310  39.7629310  57.3269310  60.7579310  51.7629310
  56.4819310  60.4379310  52.0799310  57.7999310  59.9669310  51.5039310
  57.2789310  60.6159310  51.7709310  54.2539310  65.9439310  56.0969310
  55.0649310  65.4559310  55.9549310  53.9849310  66.2209310  55.2209310
  54.3229310  65.9169310  55.9659310  67.0549310  56.6249310  52.9379310
  66.1889310  56.4609310  52.5669310  67.6369310  56.0329310  52.4599310
  67.0189310  56.5279310  52.8289310  66.7609310  62.0749310  39.6439310
  66.3039310  61.8339310  40.4499310  67.6869310  61.9349310  39.8429310
  66.8209310  62.0259310  39.7729310  56.5159310  64.9839310  53.1249310
  57.3959310  64.6109310  53.0729310  55.9779310  64.4029310  52.5879310
  56.5599310  64.8619310  53.0499310  64.8859310  57.7919310  45.2319310
  65.5819310  57.4059310  44.6989310  64.2759310  57.0699310  45.3869310
  64.8969310  57.6499310  45.1829310  62.9599310  63.2409310  52.7739310
  62.4029310  62.8469310  52.1019310  62.3839310  63.8509310  53.2339310
  62.8149310  63.2689310  52.7469310  66.8739310  62.5019310  55.9679310
  66.0509310  62.8419310  55.6189310  66.7299310  62.4459310  56.9129310
  66.7509310  62.5379310  56.0439310  60.7869310  59.2279310  42.3069310
  59.9639310  59.5109310  42.7029310  61.4649310  59.6139310  42.8619310
  60.7689310  59.3129310  42.4289310  53.7989310  62.8189310  50.3999310
  53.4219310  62.6919310  51.2699310  53.2359310  62.3079310  49.8179310
  53.6789310  62.7379310  50.4369310  62.8059310  64.3289310  45.8549310
  63.3509310  64.8299310  46.4619310  62.1119310  64.9359310  45.5979310
  62.7869310  64.4699310  45.8999310  50.7889310  65.8949310  46.6759310
  51.1829310  65.8249310  45.8059310  51.4009310  65.4399310  47.2529310
  50.9179310  65.8279310  46.6379310  65.5099310  61.5749310  42.0479310
  65.4669310  62.1939310  42.7779310  65.1439310  60.7639310  42.3999310
  65.4579310  61.5509310  42.1869310  60.2599310  62.4389310  42.5269310
  59.5879310  61.7579310  42.5569310  60.3389310  62.6559310  41.5979310
  60.1839310  62.3799310  42.4119310  53.9469310  57.2919310  56.4899310
  53.7939310  57.5719310  55.5879310  53.7099310  58.0519310  57.0209310
  53.8969310  57.4249310  56.4429310  55.8799310  61.4129310  55.5959310
  55.7649310  61.1289310  54.6889310  54.9889310  61.5159310  55.9289310
  55.7509310  61.3899310  55.5219310  54.9249310  59.7399310  50.4419310
  54.3349310  59.0009310  50.2899310  55.5369310  59.7119310  49.7069310
  54.9279310  59.6419310  50.3279310  56.3099310  65.9319310  48.4739310
  56.2699310  64.9769310  48.4369310  55.8549310  66.1599310  49.2839310
  56.2469310  65.8389310  48.5729310  64.2749310  62.5849310  55.1559310
  63.5839310  61.9449310  55.3239310  64.0669310  62.9409310  54.2929310
  64.1599310  62.5479310  55.0669310  49.8929310  61.6869310  42.2929310
  50.5579310  62.2869310  42.6309310  49.0609310  62.1209310  42.4819310
  49.8719310  61.8189310  42.3609310  52.2259310  66.1319310  44.4949310
  52.9049310  65.8519310  45.1089310  52.3239310  67.0819310  44.4459310
  52.3249310  66.2179310  44.5679310  57.6399310  64.8679310  39.5819310
  57.2569310  64.5589310  38.7609310  57.8789310  65.7789310  39.4069310
  57.6219310  64.9449310  39.4549310  51.8959310  56.3229310  45.2599310
  51.6579310  55.5039310  44.8259310  51.1349310  56.8909310  45.1329310
  51.7679310  56.2909310  45.1879310  56.4669310  55.1379310  41.2639310
  56.7119310  54.2629310  41.5649310  56.2519310  55.6149310  42.0649310
  56.4709310  55.0869310  41.4049310  61.6989310  56.8869310  43.8019310
  61.4049310  57.6019310  43.2379310  61.4279310  57.1479310  44.6819310
  61.6269310  57.0119310  43.8419310  65.6519310  67.4389310  45.5029310
  64.7369310  67.4489310  45.2199310  65.7739310  66.5709310  45.8879310
  65.5499310  67.3289310  45.5159310  53.3049310  59.4029310  39.2979310
  52.3799310  59.1599310  39.3359310  53.3009310  60.3229310  39.0329310
  53.1869310  59.4899310  39.2689310  55.2739310  63.7559310  42.5869310
  56.0969310  64.2419310  42.5489310  55.3249310  63.2609310  43.4039310
  55.3859310  63.7549310  42.6859310  57.5689310  65.3929310  42.5889310
  57.0459310  66.0959310  42.9749310  57.5809310  65.5889310  41.6529310
  57.5039310  65.5079310  42.5189310  64.6119310  60.2599310  38.7529310
  65.0899310  59.9069310  38.0039310  65.1139310  61.0319310  39.0159310
  64.7369310  60.3139310  38.6909310  66.4639310  51.3399310  48.1519310
  66.6099310  51.7449310  49.0069310  65.5189310  51.4079310  48.0129310
  66.3619310  51.3999310  48.2439310  56.4399310  63.3929310  50.6369310
  56.7649310  62.5899310  51.0439310  55.5709310  63.1609310  50.3109310
  56.3699310  63.2609310  50.6469310  52.0559310  64.3269310  56.6059310
  52.8589310  64.8369310  56.4959310  51.6059310  64.7449310  57.3399310
  52.1009310  64.4459310  56.6859310  62.5519310  61.4749310  45.8659310
  63.0499310  61.2679310  45.0749310  62.7359310  62.3999310  46.0299310
  62.6389310  61.5669310  45.7859310  57.1769310  60.2209310  39.6069310
  56.6959310  59.4039310  39.4759310  57.6109310  60.3799310  38.7689310
  57.1709310  60.1369310  39.4829310  51.1409310  65.2579310  40.0649310
  51.9079310  64.9349310  40.5399310  50.3989310  65.0189310  40.6199310
  51.1439310  65.1859310  40.1969310  50.4789310  59.0139310  48.7609310
  51.2769310  58.6639310  48.3659310  50.4589310  58.6339310  49.6389310
  50.5779310  58.9199310  48.8229310  64.4099310  63.3099310  43.9709310
  65.0839310  63.7219310  44.5109310  63.5999310  63.7559310  44.2169310
  64.3929310  63.4199310  44.0709310  52.5639310  63.8009310  47.4739310
  53.5209310  63.7849310  47.4549310  52.3189310  62.9869310  47.9139310
  52.6549310  63.6949310  47.5279310  62.8669310  57.8109310  50.0129310
  62.4129310  58.2529310  49.2949310  62.3249310  57.9859310  50.7819310
  62.7399310  57.8899310  50.0189310  68.0319310  62.7389310  48.9569310
  67.6429310  62.2649310  49.6929310  67.4969310  63.5279310  48.8709310
  67.9139310  62.7789310  49.0399310  61.4059310  59.2869310  47.8229310
  62.0319310  59.7369310  47.2559310  61.2639310  58.4399310  47.3989310
  61.4679310  59.2359310  47.6959310  61.4299310  56.0319310  40.5789310
  60.6709310  56.2799310  40.0509310  61.9849310  56.8119310  40.5799310
  61.4039310  56.1639310  40.5119310  53.9649310  59.3249310  42.2959310
  53.8749310  59.0539310  41.3829310  53.0669310  59.4819310  42.5889310
  53.8379310  59.3109310  42.2169310  63.5519310  55.2159310  45.0919310
  62.8899310  55.6219310  44.5319310  64.2469310  54.9529310  44.4889310
  63.5559310  55.2349310  44.9429310  65.1649310  60.4479310  50.4709310
  64.8999310  59.7959310  51.1209310  65.3839310  59.9349310  49.6929310
  65.1589310  60.2989310  50.4549310  57.5669310  57.1009310  53.9359310
  58.4889310  57.1769310  54.1799310  57.1149310  57.7179310  54.5109310
  57.6269310  57.1889310  54.0399310  54.5579310  54.1109310  46.8549310
  54.7289310  55.0319310  47.0539310  55.1239310  53.6269310  47.4559310
  54.6519310  54.1669310  46.9569310  58.3609310  67.4479310  38.9789310
  59.2049310  67.4099310  39.4299310  58.5839310  67.6529310  38.0709310
  58.4979310  67.4689310  38.9209310  55.4119310  63.2379310  47.2479310
  55.6689310  62.8199310  46.4259310  55.4959310  62.5459310  47.9039310
  55.4559310  63.0959310  47.2269310  66.2179310  53.9769310  56.6709310
  65.6769310  53.4619310  57.2689310  65.7539310  54.8099310  56.5839310
  66.0899310  54.0179310  56.7369310  67.5869310  61.5279310  51.8689310
  66.6909310  61.2029310  51.7819310  67.4869310  62.4229310  52.1939310
  67.4589310  61.6009310  51.8999310  59.4149310  60.5959310  49.0229310
  58.9659310  59.8419310  49.4049310  60.1369310  60.2159310  48.5229310
  59.4499310  60.4509310  49.0079310  60.9499310  64.7199310  50.7349310
  60.6739310  65.5439310  51.1369310  61.9009310  64.7069310  50.8439310
  61.0369310  64.8239310  50.7999310  56.4379310  57.3329310  43.0059310
  56.2899310  58.2759310  42.9279310  55.6459310  57.0009310  43.4299310
  56.3179310  57.4109310  43.0499310  60.0889310  57.6769310  55.4249310
  59.6229310  58.2749310  56.0089310  60.6839310  58.2409310  54.9299310
  60.1049310  57.8249310  55.4359310  55.6939310  57.8219310  39.6009310
  54.7769310  57.6069310  39.7669310  56.1689310  57.4339310  40.3359310
  55.6369310  57.7449310  39.7159310  52.3359310  62.5679310  52.8719310
  51.6569310  63.2069310  53.0919310  51.9269310  61.7189310  53.0349310
  52.1959310  62.5409310  52.9209310  50.4839310  55.4769310  51.4539310
  51.3459310  55.4379310  51.8679310  50.6699310  55.6269310  50.5269310
  50.6179310  55.4909310  51.3879310  61.4009310  63.0099310  48.8209310
  61.1329310  63.6529310  49.4779310  60.6019310  62.8279310  48.3249310
  61.2639310  63.0689310  48.8409310  49.9429310  60.6479310  55.4409310
  49.3429310  61.3809310  55.5819310  50.4899310  60.6309310  56.2269310
  49.9359310  60.7399310  55.5599310  51.2989310  59.5489310  43.4839310
  51.6989310  60.1339310  44.1279310  50.8349310  60.1339310  42.8849310
  51.2909310  59.6989310  43.4899310  61.3779310  61.3439310  51.3829310
  61.2149310  61.6529310  50.4919310  60.5169310  61.0799310  51.7059310
  61.2469310  61.3499310  51.3109310  61.5999310  55.5649310  55.5209310
  61.5969310  55.2749310  54.6089310  60.9279310  56.2459310  55.5579310
  61.5129310  55.6149310  55.4089310  53.2589310  54.2279310  39.5289310
  53.2599310  54.9699310  40.1329310  53.7629310  54.5319310  38.7749310
  53.3239310  54.3619310  39.5099310  54.1749310  66.2639310  39.8129310
  54.2609310  66.2129310  38.8609310  53.6219310  67.0319310  39.9619310
  54.1149310  66.3559310  39.7099310  61.3099310  65.0069310  53.9189310
  60.4919310  64.8509310  53.4479310  61.3579310  65.9589310  54.0079310
  61.2119310  65.1089310  53.8699310  65.6599310  59.7029310  55.1499310
  66.3729310  59.0709310  55.2449310  66.0999310  60.5399310  55.0039310
  65.8069310  59.7289310  55.1429310  51.6889310  61.4849310  48.6719310
  50.9099310  61.9909310  48.9029310  51.4269310  60.5719310  48.7949310
  51.5559310  61.4329310  48.7169310  54.7849310  65.6419310  45.7779310
  54.6979310  66.4219310  46.3269310  54.8569310  64.9179310  46.4009310
  54.7829310  65.6489310  45.9279310  50.4159310  56.7259310  40.9829310
  50.3589310  56.4719310  40.0619310  49.8679310  57.5079310  41.0509310
  50.3389310  56.7939310  40.8739310  54.8869310  60.7829310  52.9619310
  54.7959310  60.6629310  52.0169310  54.1629310  61.3609310  53.1999310
  54.7829310  60.8419310  52.8709310  55.9689310  54.2989310  44.4139310
  55.5639310  53.9679310  45.2159310  56.0759310  53.5249310  43.8619310
  55.9309310  54.1579310  44.4459310  56.5119310  60.3449310  42.2999310
  56.8849310  60.2799310  41.4209310  55.6069310  60.0489310  42.1989310
  56.4439310  60.2979310  42.1749310  56.2109310  67.5019310  40.7339310
  55.4789310  67.0129310  40.3579310  56.8709310  67.5149310  40.0419310
  56.2009310  67.4409310  40.5979310  59.7019310  60.9129310  37.9239310
  59.6829310  61.5629310  38.6259310  60.0569310  60.1249310  38.3359310
  59.7449310  60.8959310  38.0659310  64.6849310  56.1629310  55.3449310
  64.7459310  55.8159310  54.4549310  63.7449310  56.2109310  55.5189310
  64.5719310  56.1249310  55.2529310  59.3749310  55.4159310  42.7759310
  59.1499310  56.2009310  43.2749310  60.2739310  55.5679310  42.4839310
  59.4619310  55.5359310  42.8029310  64.8019310  55.1359310  47.6459310
  65.6729310  54.7429310  47.7029310  64.7029310  55.3669310  46.7229310
  64.9009310  55.1149310  47.5349310  61.7099310  55.4029310  52.7799310
  61.4499310  54.6269310  52.2829310  62.6659310  55.4079310  52.7319310
  61.7989310  55.3039310  52.7099310  64.8269310  59.0009310  42.8939310
  64.6059310  58.7509310  43.7919310  65.6429310  58.5349310  42.7109310
  64.9029310  58.9089310  42.9859310  58.6299310  57.5509310  48.0609310
  57.7789310  57.1199310  47.9739310  58.7289310  57.6979310  49.0019310
  58.5329310  57.5149310  48.1699310  57.2609310  54.5719310  55.2119310
  56.7079310  54.8829310  55.9279310  57.3219310  55.3179310  54.6149310
  57.1979310  54.7069310  55.2269310  67.5179310  59.0249310  40.7299310
  66.6949310  58.5379310  40.6819310  67.2659310  59.8889310  41.0579310
  67.3809310  59.0729310  40.7659310  64.5749310  66.3579310  54.7489310
  63.9349310  65.8249310  55.2209310  64.5369310  66.0349310  53.8479310
  64.4879310  66.2479310  54.6939310  52.6049310  57.7059310  47.6749310
  52.5109310  57.2389310  46.8449310  53.4279310  57.3829310  48.0399310
  52.6979310  57.6049310  47.6159310  67.2419310  64.1949310  52.5659310
  66.3509310  64.4109310  52.8439310  67.5189310  64.9479310  52.0439310
  67.1629310  64.3189310  52.5349310  66.3099310  66.2169310  42.9979310
  66.3319310  66.3329310  43.9479310  66.4829310  67.0899310  42.6469310
  66.3349310  66.3439310  43.0749310  54.7679310  56.9639310  48.9309310
  55.2199310  56.3849310  49.5449310  55.3309310  56.9789310  48.1579310
  54.8979310  56.8919310  48.9109310  51.3499310  60.0639310  53.1999310
  50.7839310  60.4249310  52.5179310  50.8539310  60.1799310  54.0099310
  51.2139310  60.1249310  53.2159310  64.6689310  65.2339310  52.3499310
  64.0589310  64.4979310  52.4059310  64.2369310  65.8579310  51.7669310
  64.5359310  65.2189310  52.2829310  53.7669310  65.8219310  50.7749310
  53.3059310  66.1659310  50.0099310  53.8479310  64.8839310  50.6029310
  53.7179310  65.7459310  50.6549310  51.9629310  63.4629310  42.9599310
  52.9189310  63.4949310  42.9869310  51.6919310  64.3799310  42.9979310
  52.0509310  63.5839310  42.9679310  56.8029310  58.9219310  55.9029310
  56.0379310  58.5249310  56.3209310  56.5489310  59.8329310  55.7549310
  56.6719310  58.9879310  55.9379310  53.3219310  56.7529310  40.9309310
  53.6299310  56.8179310  41.8349310  52.4039310  56.4949310  41.0099310
  53.2439310  56.7279310  41.0569310  62.6309310  61.0139310  43.3149310
  63.2509310  61.4579310  42.7359310  61.8209310  61.5179310  43.2299310
  62.6069310  61.1359310  43.2299310  49.2509310  67.0659310  39.2759310
  49.8789310  66.5429310  39.7749310  49.7449310  67.3719310  38.5149310
  49.3949310  67.0379310  39.2429310  63.5239310  67.0929310  50.3689310
  63.3509310  67.0159310  49.4309310  64.3069310  67.6399310  50.4239310
  63.6019310  67.1529310  50.2559310  64.3839310  56.7059310  52.2469310
  64.0969310  57.5319310  52.6379310  64.1609310  56.7899310  51.3199310
  64.3179310  56.8229310  52.1789310  68.3989310  58.0419310  44.7329310
  68.9809310  58.5269310  44.1469310  67.8329310  58.7119310  45.1159310
  68.4009310  58.1899310  44.7069310  62.7779310  64.8179310  56.0409310
  61.9669310  64.8559310  55.5339310  63.1419310  63.9549310  55.8459310
  62.7209310  64.7129310  55.9509310  49.7229310  63.4509310  45.1759310
  50.3199310  63.7069310  44.4719310  50.0259310  63.9459310  45.9379310
  49.8379310  63.5469310  45.1829310  52.4039310  66.9579310  48.9809310
  52.6629310  67.6509310  48.3729310  51.5319310  67.2169310  49.2799310
  52.3259310  67.0799310  48.9409310  66.0919310  64.5479310  45.9619310
  66.9449310  64.2069310  45.6919310  66.1139310  64.5189310  46.9179310
  66.2039310  64.4999310  46.0489310  59.0219310  61.4589310  53.8669310
  58.2679310  61.1289310  53.3779310  58.8209310  61.2609310  54.7809310
  58.8999310  61.3909310  53.9209310  62.5719310  60.7819310  55.9359310
  61.7879310  60.7429310  56.4839310  63.2089310  60.2309310  56.3899310
  62.5529310  60.7069310  56.0639310  68.1679310  54.5739310  45.4699310
  67.5719310  54.2239310  46.1319310  68.8859310  53.9419310  45.4349310
  68.1839310  54.4489310  45.5499310  64.2379310  65.2189310  41.1769310
  64.6339310  65.5599310  41.9789310  64.7289310  65.6379310  40.4699310
  64.3509310  65.3159310  41.1889310  63.9669310  59.3049310  53.1389310
  64.6599310  59.4989310  53.7709310  63.3309310  60.0109310  53.2569310
  63.9739310  59.4199310  53.2349310  56.5439310  56.2459310  32.5979310
  56.7719310  56.2179310  33.5269310  55.9149310  55.5339310  32.4849310
  56.4929310  56.1509310  32.7029310  54.4599310  54.5319310  32.1039310
  53.8999310  54.9799310  32.7379310  54.3139310  53.6009310  32.2709310
  54.3699310  54.4699310  32.2059310  55.2789310  62.7729310  21.3519310
  55.1249310  63.2299310  22.1789310  55.9909310  62.1629310  21.5439310
  55.3499310  62.7529310  21.4819310  58.6739310  57.9819310  31.9569310
  58.0709310  57.3409310  32.3319310  59.4629310  57.9129310  32.4949310
  58.6979310  57.8919310  32.0739310  59.2119310  54.4189310  38.2349310
  60.1039310  54.1899310  37.9709310  58.6899310  54.2979310  37.4419310
  59.2599310  54.3749310  38.0999310  61.0969310  57.8079310  33.2249310
  61.2749310  56.9259310  33.5509310  61.4159310  58.3879310  33.9169310
  61.1609310  57.7689310  33.3559310  66.5369310  56.4359310  24.7239310
  66.6049310  55.4889310  24.5999310  67.4059310  56.7009310  25.0249310
  66.6569310  56.3489310  24.7469310  67.6559310  60.7269310  26.5649310
  66.8769310  60.8369310  27.1099310  67.9999310  61.6129310  26.4559310
  67.5999310  60.8539310  26.6209310  58.7519310  56.8549310  20.7129310
  58.4859310  56.3919310  21.5079310  58.7679310  56.1779310  20.0369310
  58.7199310  56.7089310  20.7289310  58.9869310  64.0429310  33.9969310
  58.8589310  63.1779310  34.3859310  59.4299310  63.8679310  33.1659310
  59.0269310  63.9099310  33.9399310  61.8629310  64.9949310  21.0159310
  62.6329310  65.0159310  21.5829310  62.1819310  64.6279310  20.1919310
  62.0019310  64.9509310  20.9829310  67.5989310  64.6319310  22.7459310
  67.2329310  65.2729310  23.3559310  66.8339310  64.2099310  22.3539310
  67.4539310  64.6599310  22.7739310  50.1109310  58.3729310  32.5539310
  50.3879310  58.9419310  33.2719310  49.5089310  57.7499310  32.9609310
  50.0699310  58.3659310  32.6979310  65.5809310  66.2319310  19.7629310
  65.6229310  66.0979310  18.8159310  66.4669310  66.4989310  20.0059310
  65.6999310  66.2489310  19.6729310  50.9839310  64.7099310  35.1469310
  50.0629310  64.4899310  35.0069310  51.0639310  64.8169310  36.0939310
  50.8759310  64.6949310  35.2499310  65.9239310  56.6619310  21.8509310
  66.0559310  56.5179310  22.7879310  65.0559310  57.0609310  21.7909310
  65.8299310  56.6939310  21.9639310  54.6859310  58.9789310  26.1239310
  54.2789310  58.9779310  25.2569310  54.1999310  59.6419310  26.6149310
  54.5719310  59.0639310  26.0759310  52.8049310  55.3749310  34.1419310
  53.0119310  56.2729310  34.3989310  52.4489310  54.9739310  34.9349310
  52.7859310  55.4379310  34.2759310  54.1129310  56.1659310  24.8419310
  53.3549310  56.1529310  25.4269310  54.6449310  55.4219310  25.1229310
  54.0839310  56.0689310  24.9529310  61.1529310  59.8639310  35.1409310
  61.7389310  60.1769310  35.8299310  60.4269310  60.4889310  35.1409310
  61.1349310  59.9839310  35.2289310  58.7729310  60.3649310  24.6729310
  57.9479310  60.3469310  24.1879310  58.5219310  60.1789310  25.5779310
  58.6349310  60.3389310  24.7269310  50.6739310  58.3769310  38.1949310
  50.4759310  58.4579310  37.2629310  49.8799310  58.6799310  38.6359310
  50.5469310  58.4259310  38.1319310  53.5979310  61.9869310  19.3429310
  52.9949310  62.7239310  19.2469310  54.2269310  62.2769310  20.0039310
  53.6009310  62.1179310  19.4149310  56.7479310  60.9399310  29.6179310
  57.6289310  61.2319310  29.8499310  56.8339310  60.6059310  28.7249310
  56.8719310  60.9349310  29.5329310  61.0449310  56.7589310  27.8019310
  60.0929310  56.6959310  27.8729310  61.3729310  56.0309310  28.3299310
  60.9649310  56.6579310  27.8789310  66.1739310  64.7669310  29.9239310
  66.6139310  65.2739310  30.6069310  65.5019310  64.2699310  30.3899310
  66.1449310  64.7679310  30.0709310  67.3889310  66.5349310  32.1519310
  66.6749310  67.1399310  31.9529310  68.1049310  67.0979310  32.4489310
  67.3899310  66.6839310  32.1649310  56.6939310  64.2879310  36.9879310
  56.5369310  63.3439310  36.9519310  56.6049310  64.5799310  36.0809310
  56.6619310  64.2039310  36.8669310  63.5239310  58.0839310  21.6659310
  63.6279310  58.4279310  22.5529310  63.3939310  58.8599310  21.1209310
  63.5209310  58.2269310  21.7099310  66.1659310  58.9319310  28.9929310
  67.0779310  58.9429310  29.2859310  66.1659310  58.3469310  28.2349310
  66.2829310  58.8579310  28.9339310  50.9219310  55.1739310  29.5569310
  51.7559310  55.6279310  29.4329310  50.3339310  55.5729310  28.9169310
  50.9539310  55.2829310  29.4599310  52.0209310  54.3069310  36.5689310
  51.1879310  53.8799310  36.7699310  51.9879310  55.1339310  37.0489310
  51.9099310  54.3579310  36.6559310  58.3559310  59.7689310  27.3069310
  58.4419310  58.9849310  27.8499310  58.7959310  60.4559310  27.8069310
  58.4229310  59.7569310  27.4399310  67.0179310  57.3869310  36.6469310
  66.1189310  57.0589310  36.6419310  67.3429310  57.2099310  35.7649310
  66.9439310  57.3219310  36.5339310  65.4519310  53.9079310  21.5209310
  65.5799310  54.8229310  21.2689310  64.5029310  53.8129310  21.6059310
  65.3469310  54.0129310  21.4999310  68.6269310  55.2459310  19.5219310
  68.4509310  56.0869310  19.1009310  67.8179310  54.7469310  19.4079310
  68.5009310  55.2899310  19.4539310  71.1959310  61.1739310  26.8999310
  71.2099310  60.8609310  27.8049310  71.1469310  62.1269310  26.9769310
  71.1919310  61.2559310  27.0259310  60.5889310  59.1099310  20.7829310
  59.9629310  58.3859310  20.8069310  60.8069310  59.2689310  21.7009310
  60.5369310  59.0379310  20.9029310  57.3269310  60.7579310  32.9029310
  56.4819310  60.4379310  33.2199310  57.7999310  59.9669310  32.6439310
  57.2789310  60.6159310  32.9109310  54.2539310  65.9439310  37.2369310
  55.0649310  65.4559310  37.0949310  53.9849310  66.2209310  36.3609310
  54.3229310  65.9169310  37.1059310  67.0549310  56.6249310  34.0779310
  66.1889310  56.4609310  33.7069310  67.6369310  56.0329310  33.5999310
  67.0189310  56.5279310  33.9689310  66.7609310  62.0749310  20.7839310
  66.3039310  61.8339310  21.5899310  67.6869310  61.9349310  20.9829310
  66.8209310  62.0259310  20.9129310  64.8859310  57.7919310  26.3719310
  65.5819310  57.4059310  25.8389310  64.2759310  57.0699310  26.5269310
  64.8969310  57.6499310  26.3229310  62.9599310  63.2409310  33.9139310
  62.4029310  62.8469310  33.2419310  62.3839310  63.8509310  34.3739310
  62.8149310  63.2689310  33.8869310  66.8739310  62.5019310  37.1079310
  66.0509310  62.8419310  36.7589310  66.7299310  62.4459310  38.0529310
  66.7509310  62.5379310  37.1839310  60.7869310  59.2279310  23.4469310
  59.9639310  59.5109310  23.8429310  61.4649310  59.6139310  24.0019310
  60.7689310  59.3129310  23.5689310  53.7989310  62.8189310  31.5399310
  53.4219310  62.6919310  32.4099310  53.2359310  62.3079310  30.9579310
  53.6789310  62.7379310  31.5769310  50.7889310  65.8949310  27.8159310
  51.1829310  65.8249310  26.9459310  51.4009310  65.4399310  28.3929310
  50.9179310  65.8279310  27.7779310  65.5099310  61.5749310  23.1879310
  65.4669310  62.1939310  23.9179310  65.1439310  60.7639310  23.5399310
  65.4579310  61.5509310  23.3269310  60.2599310  62.4389310  23.6669310
  59.5879310  61.7579310  23.6969310  60.3389310  62.6559310  22.7379310
  60.1839310  62.3799310  23.5519310  53.9469310  57.2919310  37.6299310
  53.7939310  57.5719310  36.7279310  53.7099310  58.0519310  38.1609310
  53.8969310  57.4249310  37.5829310  55.8799310  61.4129310  36.7359310
  55.7649310  61.1289310  35.8289310  54.9889310  61.5159310  37.0689310
  55.7509310  61.3899310  36.6619310  54.9249310  59.7399310  31.5819310
  54.3349310  59.0009310  31.4299310  55.5369310  59.7119310  30.8469310
  54.9279310  59.6419310  31.4679310  64.2749310  62.5849310  36.2959310
  63.5839310  61.9449310  36.4639310  64.0669310  62.9409310  35.4329310
  64.1599310  62.5479310  36.2069310  49.8929310  61.6869310  23.4329310
  50.5579310  62.2869310  23.7709310  49.0609310  62.1209310  23.6219310
  49.8719310  61.8189310  23.5009310  52.2259310  66.1319310  25.6349310
  52.9049310  65.8519310  26.2489310  52.3239310  67.0819310  25.5859310
  52.3249310  66.2179310  25.7079310  57.6399310  64.8679310  20.7219310
  57.2569310  64.5589310  19.9009310  57.8789310  65.7789310  20.5469310
  57.6219310  64.9449310  20.5949310  51.8959310  56.3229310  26.3999310
  51.6579310  55.5039310  25.9659310  51.1349310  56.8909310  26.2729310
  51.7679310  56.2909310  26.3279310  56.4669310  55.1379310  22.4039310
  56.7119310  54.2629310  22.7049310  56.2519310  55.6149310  23.2049310
  56.4709310  55.0869310  22.5449310  61.6989310  56.8869310  24.9419310
  61.4049310  57.6019310  24.3779310  61.4279310  57.1479310  25.8219310
  61.6269310  57.0119310  24.9819310  65.6519310  67.4389310  26.6429310
  64.7369310  67.4489310  26.3599310  65.7739310  66.5709310  27.0279310
  65.5499310  67.3289310  26.6559310  53.3049310  59.4029310  20.4379310
  52.3799310  59.1599310  20.4759310  53.3009310  60.3229310  20.1729310
  53.1869310  59.4899310  20.4089310  55.2739310  63.7559310  23.7269310
  56.0969310  64.2419310  23.6889310  55.3249310  63.2609310  24.5439310
  55.3859310  63.7549310  23.8259310  64.6119310  60.2599310  19.8929310
  65.0899310  59.9069310  19.1439310  65.1139310  61.0319310  20.1559310
  64.7369310  60.3139310  19.8309310  53.5059310  65.6959310  34.7229310
  53.4679310  66.0129310  33.8209310  52.6339310  65.3369310  34.8879310
  53.3889310  65.6899310  34.6289310  66.4639310  51.3399310  29.2919310
  66.6099310  51.7449310  30.1469310  65.5189310  51.4079310  29.1529310
  66.3619310  51.3999310  29.3839310  56.4399310  63.3929310  31.7769310
  56.7649310  62.5899310  32.1839310  55.5709310  63.1609310  31.4509310
  56.3699310  63.2609310  31.7869310  52.0559310  64.3269310  37.7459310
  52.8589310  64.8369310  37.6359310  51.6059310  64.7449310  38.4799310
  52.1009310  64.4459310  37.8259310  62.5519310  61.4749310  27.0059310
  63.0499310  61.2679310  26.2149310  62.7359310  62.3999310  27.1699310
  62.6389310  61.5669310  26.9259310  57.1769310  60.2209310  20.7469310
  56.6959310  59.4039310  20.6159310  57.6109310  60.3799310  19.9089310
  57.1709310  60.1369310  20.6229310  51.1409310  65.2579310  21.2049310
  51.9079310  64.9349310  21.6799310  50.3989310  65.0189310  21.7599310
  51.1439310  65.1859310  21.3369310  50.4789310  59.0139310  29.9009310
  51.2769310  58.6639310  29.5059310  50.4589310  58.6339310  30.7789310
  50.5779310  58.9199310  29.9629310  59.8729310  62.0709310  27.6289310
  59.4659310  62.8309310  27.2129310  60.7349310  62.0059310  27.2189310
  59.9309310  62.1599310  27.5229310  64.4099310  63.3099310  25.1109310
  65.0839310  63.7219310  25.6509310  63.5999310  63.7559310  25.3569310
  64.3929310  63.4199310  25.2109310  52.5639310  63.8009310  28.6139310
  53.5209310  63.7849310  28.5949310  52.3189310  62.9869310  29.0539310
  52.6549310  63.6949310  28.6679310  62.8669310  57.8109310  31.1529310
  62.4129310  58.2529310  30.4349310  62.3249310  57.9859310  31.9219310
  62.7399310  57.8899310  31.1589310  68.0319310  62.7389310  30.0969310
  67.6429310  62.2649310  30.8329310  67.4969310  63.5279310  30.0109310
  67.9139310  62.7789310  30.1799310  61.4059310  59.2869310  28.9629310
  62.0319310  59.7369310  28.3959310  61.2639310  58.4399310  28.5389310
  61.4679310  59.2359310  28.8359310  61.4299310  56.0319310  21.7189310
  60.6709310  56.2799310  21.1909310  61.9849310  56.8119310  21.7199310
  61.4039310  56.1639310  21.6519310  53.9649310  59.3249310  23.4359310
  53.8749310  59.0539310  22.5229310  53.0669310  59.4819310  23.7289310
  53.8379310  59.3109310  23.3569310  63.5519310  55.2159310  26.2319310
  62.8899310  55.6219310  25.6719310  64.2469310  54.9529310  25.6289310
  63.5559310  55.2349310  26.0829310  65.1649310  60.4479310  31.6109310
  64.8999310  59.7959310  32.2609310  65.3839310  59.9349310  30.8329310
  65.1589310  60.2989310  31.5949310  55.9109310  62.2409310  25.8359310
  56.0989310  61.4889310  25.2739310  56.7669310  62.6319310  26.0059310
  56.0439310  62.1949310  25.7859310  57.5669310  57.1009310  35.0759310
  58.4889310  57.1769310  35.3199310  57.1149310  57.7179310  35.6509310
  57.6269310  57.1889310  35.1799310  54.5579310  54.1109310  27.9949310
  54.7289310  55.0319310  28.1939310  55.1239310  53.6269310  28.5959310
  54.6519310  54.1669310  28.0969310  58.3609310  67.4479310  20.1189310
  59.2049310  67.4099310  20.5699310  58.5839310  67.6529310  19.2109310
  58.4979310  67.4689310  20.0609310  55.4119310  63.2379310  28.3879310
  55.6689310  62.8199310  27.5659310  55.4959310  62.5459310  29.0439310
  55.4559310  63.0959310  28.3669310  66.2179310  53.9769310  37.8109310
  65.6769310  53.4619310  38.4089310  65.7539310  54.8099310  37.7239310
  66.0899310  54.0179310  37.8769310  67.5869310  61.5279310  33.0089310
  66.6909310  61.2029310  32.9219310  67.4869310  62.4229310  33.3339310
  67.4589310  61.6009310  33.0399310  59.7829310  63.2149310  21.0469310
  60.5129310  63.8349310  21.0359310  59.0009310  63.7659310  21.0159310
  59.7759310  63.3649310  21.0409310  59.4149310  60.5959310  30.1629310
  58.9659310  59.8419310  30.5449310  60.1369310  60.2159310  29.6629310
  59.4499310  60.4509310  30.1479310  60.9499310  64.7199310  31.8749310
  60.6739310  65.5439310  32.2769310  61.9009310  64.7069310  31.9839310
  61.0369310  64.8239310  31.9399310  56.4379310  57.3329310  24.1459310
  56.2899310  58.2759310  24.0679310  55.6459310  57.0009310  24.5699310
  56.3179310  57.4109310  24.1899310  60.0889310  57.6769310  36.5649310
  59.6229310  58.2749310  37.1489310  60.6839310  58.2409310  36.0699310
  60.1049310  57.8249310  36.5759310  55.6939310  57.8219310  20.7409310
  54.7769310  57.6069310  20.9069310  56.1689310  57.4339310  21.4759310
  55.6369310  57.7449310  20.8559310  52.3359310  62.5679310  34.0119310
  51.6569310  63.2069310  34.2319310  51.9269310  61.7189310  34.1749310
  52.1959310  62.5409310  34.0609310  50.4839310  55.4769310  32.5939310
  51.3459310  55.4379310  33.0079310  50.6699310  55.6269310  31.6669310
  50.6179310  55.4909310  32.5279310  61.4009310  63.0099310  29.9609310
  61.1329310  63.6529310  30.6179310  60.6019310  62.8279310  29.4649310
  61.2639310  63.0689310  29.9809310  49.9429310  60.6479310  36.5809310
  49.3429310  61.3809310  36.7219310  50.4899310  60.6309310  37.3669310
  49.9359310  60.7399310  36.6999310  51.2989310  59.5489310  24.6239310
  51.6989310  60.1339310  25.2679310  50.8349310  60.1339310  24.0249310
  51.2909310  59.6989310  24.6299310  61.3779310  61.3439310  32.5229310
  61.2149310  61.6529310  31.6319310  60.5169310  61.0799310  32.8459310
  61.2469310  61.3499310  32.4509310  61.5999310  55.5649310  36.6609310
  61.5969310  55.2749310  35.7489310  60.9279310  56.2459310  36.6979310
  61.5129310  55.6149310  36.5489310  53.2589310  54.2279310  20.6689310
  53.2599310  54.9699310  21.2729310  53.7629310  54.5319310  19.9149310
  53.3239310  54.3619310  20.6499310  54.1749310  66.2639310  20.9529310
  54.2609310  66.2129310  20.0009310  53.6219310  67.0319310  21.1019310
  54.1149310  66.3559310  20.8499310  61.3099310  65.0069310  35.0589310
  60.4919310  64.8509310  34.5879310  61.3579310  65.9589310  35.1479310
  61.2119310  65.1089310  35.0099310  65.6599310  59.7029310  36.2899310
  66.3729310  59.0709310  36.3849310  66.0999310  60.5399310  36.1439310
  65.8069310  59.7289310  36.2829310  51.6889310  61.4849310  29.8119310
  50.9099310  61.9909310  30.0429310  51.4269310  60.5719310  29.9349310
  51.5559310  61.4329310  29.8569310  50.4159310  56.7259310  22.1229310
  50.3589310  56.4719310  21.2019310  49.8679310  57.5079310  22.1909310
  50.3389310  56.7939310  22.0139310  54.8869310  60.7829310  34.1019310
  54.7959310  60.6629310  33.1569310  54.1629310  61.3609310  34.3399310
  54.7829310  60.8419310  34.0109310  55.9689310  54.2989310  25.5539310
  55.5639310  53.9679310  26.3559310  56.0759310  53.5249310  25.0019310
  55.9309310  54.1579310  25.5859310  56.5119310  60.3449310  23.4399310
  56.8849310  60.2799310  22.5609310  55.6069310  60.0489310  23.3389310
  56.4439310  60.2979310  23.3149310  56.2109310  67.5019310  21.8739310
  55.4789310  67.0129310  21.4979310  56.8709310  67.5149310  21.1819310
  56.2009310  67.4409310  21.7379310  58.6569310  57.2419310  25.8249310
  57.8049310  57.1039310  25.4129310  58.7069310  58.1889310  25.9609310
  58.5549310  57.3459310  25.7899310  53.5289310  57.9099310  35.0159310
  54.3199310  57.9429310  34.4789310  53.1689310  58.7959310  34.9679310
  53.5839310  58.0269310  34.9409310  59.7019310  60.9129310  19.0639310
  59.6829310  61.5629310  19.7659310  60.0569310  60.1249310  19.4759310
  59.7449310  60.8959310  19.2059310  64.6849310  56.1629310  36.4849310
  64.7459310  55.8159310  35.5949310  63.7449310  56.2109310  36.6589310
  64.5719310  56.1249310  36.3929310  59.3749310  55.4159310  23.9159310
  59.1499310  56.2009310  24.4149310  60.2739310  55.5679310  23.6239310
  59.4619310  55.5359310  23.9429310  64.8019310  55.1359310  28.7859310
  65.6729310  54.7429310  28.8429310  64.7029310  55.3669310  27.8629310
  64.9009310  55.1149310  28.6749310  61.7099310  55.4029310  33.9199310
  61.4499310  54.6269310  33.4229310  62.6659310  55.4079310  33.8719310
  61.7989310  55.3039310  33.8499310  64.8269310  59.0009310  24.0339310
  64.6059310  58.7509310  24.9319310  65.6429310  58.5349310  23.8509310
  64.9029310  58.9089310  24.1259310  58.6299310  57.5509310  29.2009310
  57.7789310  57.1199310  29.1139310  58.7289310  57.6979310  30.1419310
  58.5329310  57.5149310  29.3099310  57.2609310  54.5719310  36.3519310
  56.7079310  54.8829310  37.0679310  57.3219310  55.3179310  35.7549310
  57.1979310  54.7069310  36.3669310  67.5179310  59.0249310  21.8699310
  66.6949310  58.5379310  21.8219310  67.2659310  59.8889310  22.1979310
  67.3809310  59.0729310  21.9059310  64.5749310  66.3579310  35.8889310
  63.9349310  65.8249310  36.3609310  64.5369310  66.0349310  34.9879310
  64.4879310  66.2479310  35.8339310  52.6049310  57.7059310  28.8149310
  52.5109310  57.2389310  27.9849310  53.4279310  57.3829310  29.1799310
  52.6979310  57.6049310  28.7559310  67.2419310  64.1949310  33.7059310
  66.3509310  64.4109310  33.9839310  67.5189310  64.9479310  33.1839310
  67.1629310  64.3189310  33.6749310  66.3099310  66.2169310  24.1379310
  66.3319310  66.3329310  25.0879310  66.4829310  67.0899310  23.7869310
  66.3349310  66.3439310  24.2149310  54.7679310  56.9639310  30.0709310
  55.2199310  56.3849310  30.6849310  55.3309310  56.9789310  29.2979310
  54.8979310  56.8919310  30.0509310  51.3499310  60.0639310  34.3399310
  50.7839310  60.4249310  33.6579310  50.8539310  60.1799310  35.1499310
  51.2139310  60.1249310  34.3559310  64.6689310  65.2339310  33.4899310
  64.0589310  64.4979310  33.5459310  64.2369310  65.8579310  32.9069310
  64.5359310  65.2189310  33.4229310  53.7669310  65.8219310  31.9149310
  53.3059310  66.1659310  31.1499310  53.8479310  64.8839310  31.7429310
  53.7179310  65.7459310  31.7949310  51.9629310  63.4629310  24.0999310
  52.9189310  63.4949310  24.1269310  51.6919310  64.3799310  24.1379310
  52.0509310  63.5839310  24.1079310  56.8029310  58.9219310  37.0429310
  56.0379310  58.5249310  37.4609310  56.5489310  59.8329310  36.8949310
  56.6719310  58.9879310  37.0779310  53.3219310  56.7529310  22.0709310
  53.6299310  56.8179310  22.9749310  52.4039310  56.4949310  22.1499310
  53.2439310  56.7279310  22.1969310  62.6309310  61.0139310  24.4549310
  63.2509310  61.4579310  23.8759310  61.8209310  61.5179310  24.3699310
  62.6069310  61.1359310  24.3699310  49.2509310  67.0659310  20.4159310
  49.8789310  66.5429310  20.9149310  49.7449310  67.3719310  19.6549310
  49.3949310  67.0379310  20.3829310  63.5239310  67.0929310  31.5089310
  63.3509310  67.0159310  30.5709310  64.3069310  67.6399310  31.5639310
  63.6019310  67.1529310  31.3959310  58.3419310  63.4769310  25.8279310
  58.8559310  62.8769310  25.2879310  58.0679310  64.1669310  25.2239310
  58.3719310  63.4879310  25.6819310  64.3839310  56.7059310  33.3869310
  64.0969310  57.5319310  33.7779310  64.1609310  56.7899310  32.4599310
  64.3179310  56.8229310  33.3189310  68.3989310  58.0419310  25.8729310
  68.9809310  58.5269310  25.2869310  67.8329310  58.7119310  26.2559310
  68.4009310  58.1899310  25.8469310  56.1179310  56.8609310  27.7389310
  55.9399310  57.4509310  27.0069310  56.6029310  56.1339310  27.3489310
  56.1569310  56.8439310  27.5959310  49.7229310  63.4509310  26.3159310
  50.3199310  63.7069310  25.6119310  50.0259310  63.9459310  27.0779310
  49.8379310  63.5469310  26.3229310  52.4039310  66.9579310  30.1209310
  52.6629310  67.6509310  29.5129310  51.5319310  67.2169310  30.4199310
  52.3259310  67.0799310  30.0809310  66.0919310  64.5479310  27.1019310
  66.9449310  64.2069310  26.8319310  66.1139310  64.5189310  28.0579310
  66.2039310  64.4999310  27.1889310  59.0219310  61.4589310  35.0069310
  58.2679310  61.1289310  34.5179310  58.8209310  61.2609310  35.9209310
  58.8999310  61.3909310  35.0609310  62.5719310  60.7819310  37.0759310
  61.7879310  60.7429310  37.6239310  63.2089310  60.2309310  37.5299310
  62.5529310  60.7069310  37.2039310  68.1679310  54.5739310  26.6099310
  67.5719310  54.2239310  27.2719310  68.8859310  53.9419310  26.5749310
  68.1839310  54.4489310  26.6899310  64.2379310  65.2189310  22.3169310
  64.6339310  65.5599310  23.1189310  64.7289310  65.6379310  21.6099310
  64.3509310  65.3159310  22.3289310  63.9669310  59.3049310  34.2789310
  64.6599310  59.4989310  34.9109310  63.3309310  60.0109310  34.3969310
  63.9739310  59.4199310  34.3749310  55.2789310  62.7729310   2.4919310
  55.1249310  63.2299310   3.3189310  55.9909310  62.1629310   2.6839310
  55.3499310  62.7529310   2.6219310  60.7849310  65.8039310   6.6109310
  60.3589310  65.1969310   6.0069310  60.1219310  66.4709310   6.7889310
  60.6459310  65.8119310   6.5569310  66.5369310  56.4359310   5.8639310
  66.6049310  55.4889310   5.7399310  67.4059310  56.7009310   6.1649310
  66.6569310  56.3489310   5.8869310  67.6559310  60.7269310   7.7049310
  66.8769310  60.8369310   8.2499310  67.9999310  61.6129310   7.5959310
  67.5999310  60.8539310   7.7609310  58.9869310  64.0429310  15.1369310
  58.8589310  63.1779310  15.5259310  59.4299310  63.8679310  14.3059310
  59.0269310  63.9099310  15.0799310  67.5989310  64.6319310   3.8859310
  67.2329310  65.2729310   4.4959310  66.8339310  64.2099310   3.4939310
  67.4539310  64.6599310   3.9139310  50.1109310  58.3729310  13.6939310
  50.3879310  58.9419310  14.4119310  49.5089310  57.7499310  14.1009310
  50.0699310  58.3659310  13.8379310  50.9839310  64.7099310  16.2869310
  50.0629310  64.4899310  16.1469310  51.0639310  64.8169310  17.2339310
  50.8759310  64.6949310  16.3899310  65.9239310  56.6619310   2.9909310
  66.0559310  56.5179310   3.9279310  65.0559310  57.0609310   2.9309310
  65.8299310  56.6939310   3.1039310  54.6859310  58.9789310   7.2639310
  54.2789310  58.9779310   6.3969310  54.1999310  59.6419310   7.7549310
  54.5719310  59.0639310   7.2159310  54.1129310  56.1659310   5.9819310
  53.3549310  56.1529310   6.5669310  54.6449310  55.4219310   6.2629310
  54.0839310  56.0689310   6.0929310  61.1529310  59.8639310  16.2809310
  61.7389310  60.1769310  16.9699310  60.4269310  60.4889310  16.2809310
  61.1349310  59.9839310  16.3689310  58.7729310  60.3649310   5.8129310
  57.9479310  60.3469310   5.3279310  58.5219310  60.1789310   6.7179310
  58.6349310  60.3389310   5.8669310  50.6739310  58.3769310  19.3349310
  50.4759310  58.4579310  18.4029310  49.8799310  58.6799310  19.7759310
  50.5469310  58.4259310  19.2719310  56.7479310  60.9399310  10.7579310
  57.6289310  61.2319310  10.9899310  56.8339310  60.6059310   9.8649310
  56.8719310  60.9349310  10.6729310  61.0449310  56.7589310   8.9419310
  60.0929310  56.6959310   9.0129310  61.3729310  56.0309310   9.4699310
  60.9649310  56.6579310   9.0189310  66.1739310  64.7669310  11.0639310
  66.6139310  65.2739310  11.7469310  65.5019310  64.2699310  11.5299310
  66.1449310  64.7679310  11.2109310  67.3889310  66.5349310  13.2919310
  66.6749310  67.1399310  13.0929310  68.1049310  67.0979310  13.5889310
  67.3899310  66.6839310  13.3049310  56.6939310  64.2879310  18.1279310
  56.5369310  63.3439310  18.0919310  56.6049310  64.5799310  17.2209310
  56.6619310  64.2039310  18.0069310  63.5239310  58.0839310   2.8059310
  63.6279310  58.4279310   3.6929310  63.3939310  58.8599310   2.2609310
  63.5209310  58.2269310   2.8499310  66.1659310  58.9319310  10.1329310
  67.0779310  58.9429310  10.4259310  66.1659310  58.3469310   9.3749310
  66.2829310  58.8579310  10.0739310  64.0109310  63.2689310  11.9839310
  63.1359310  63.0119310  11.6939310  64.3629310  62.4859310  12.4079310
  63.9439310  63.1359310  12.0009310  52.0209310  54.3069310  17.7089310
  51.1879310  53.8799310  17.9099310  51.9879310  55.1339310  18.1889310
  51.9099310  54.3579310  17.7959310  58.3559310  59.7689310   8.4469310
  58.4419310  58.9849310   8.9899310  58.7959310  60.4559310   8.9469310
  58.4229310  59.7569310   8.5799310  67.0179310  57.3869310  17.7869310
  66.1189310  57.0589310  17.7819310  67.3429310  57.2099310  16.9049310
  66.9439310  57.3219310  17.6739310  65.4519310  53.9079310   2.6609310
  65.5799310  54.8229310   2.4089310  64.5029310  53.8129310   2.7459310
  65.3469310  54.0129310   2.6399310  71.1959310  61.1739310   8.0399310
  71.2099310  60.8609310   8.9449310  71.1469310  62.1269310   8.1169310
  71.1919310  61.2559310   8.1659310  60.5889310  59.1099310   1.9229310
  59.9629310  58.3859310   1.9469310  60.8069310  59.2689310   2.8409310
  60.5369310  59.0379310   2.0429310  57.3269310  60.7579310  14.0429310
  56.4819310  60.4379310  14.3599310  57.7999310  59.9669310  13.7839310
  57.2789310  60.6159310  14.0509310  54.2539310  65.9439310  18.3769310
  55.0649310  65.4559310  18.2349310  53.9849310  66.2209310  17.5009310
  54.3229310  65.9169310  18.2459310  67.0549310  56.6249310  15.2179310
  66.1889310  56.4609310  14.8469310  67.6369310  56.0329310  14.7399310
  67.0189310  56.5279310  15.1089310  66.7609310  62.0749310   1.9239310
  66.3039310  61.8339310   2.7299310  67.6869310  61.9349310   2.1229310
  66.8209310  62.0259310   2.0529310  56.5159310  64.9839310  15.4049310
  57.3959310  64.6109310  15.3529310  55.9779310  64.4029310  14.8679310
  56.5599310  64.8619310  15.3299310  64.8859310  57.7919310   7.5119310
  65.5819310  57.4059310   6.9789310  64.2759310  57.0699310   7.6669310
  64.8969310  57.6499310   7.4629310  62.9599310  63.2409310  15.0539310
  62.4029310  62.8469310  14.3819310  62.3839310  63.8509310  15.5139310
  62.8149310  63.2689310  15.0269310  66.8739310  62.5019310  18.2479310
  66.0509310  62.8419310  17.8989310  66.7299310  62.4459310  19.1929310
  66.7509310  62.5379310  18.3239310  60.7869310  59.2279310   4.5869310
  59.9639310  59.5109310   4.9829310  61.4649310  59.6139310   5.1419310
  60.7689310  59.3129310   4.7089310  53.7989310  62.8189310  12.6799310
  53.4219310  62.6919310  13.5499310  53.2359310  62.3079310  12.0979310
  53.6789310  62.7379310  12.7169310  62.8059310  64.3289310   8.1349310
  63.3509310  64.8299310   8.7419310  62.1119310  64.9359310   7.8779310
  62.7869310  64.4699310   8.1799310  50.7889310  65.8949310   8.9559310
  51.1829310  65.8249310   8.0859310  51.4009310  65.4399310   9.5329310
  50.9179310  65.8279310   8.9179310  65.5099310  61.5749310   4.3279310
  65.4669310  62.1939310   5.0579310  65.1439310  60.7639310   4.6799310
  65.4579310  61.5509310   4.4669310  60.2599310  62.4389310   4.8069310
  59.5879310  61.7579310   4.8369310  60.3389310  62.6559310   3.8779310
  60.1839310  62.3799310   4.6919310  53.9469310  57.2919310  18.7699310
  53.7939310  57.5719310  17.8679310  53.7099310  58.0519310  19.3009310
  53.8969310  57.4249310  18.7229310  55.8799310  61.4129310  17.8759310
  55.7649310  61.1289310  16.9689310  54.9889310  61.5159310  18.2089310
  55.7509310  61.3899310  17.8019310  54.9249310  59.7399310  12.7219310
  54.3349310  59.0009310  12.5699310  55.5369310  59.7119310  11.9869310
  54.9279310  59.6419310  12.6079310  56.3099310  65.9319310  10.7539310
  56.2699310  64.9769310  10.7169310  55.8549310  66.1599310  11.5639310
  56.2469310  65.8389310  10.8529310  64.2749310  62.5849310  17.4359310
  63.5839310  61.9449310  17.6039310  64.0669310  62.9409310  16.5729310
  64.1599310  62.5479310  17.3469310  49.8929310  61.6869310   4.5729310
  50.5579310  62.2869310   4.9109310  49.0609310  62.1209310   4.7619310
  49.8719310  61.8189310   4.6409310  52.2259310  66.1319310   6.7749310
  52.9049310  65.8519310   7.3889310  52.3239310  67.0819310   6.7259310
  52.3249310  66.2179310   6.8479310  51.8959310  56.3229310   7.5399310
  51.6579310  55.5039310   7.1059310  51.1349310  56.8909310   7.4129310
  51.7679310  56.2909310   7.4679310  56.4669310  55.1379310   3.5439310
  56.7119310  54.2629310   3.8449310  56.2519310  55.6149310   4.3449310
  56.4709310  55.0869310   3.6849310  61.6989310  56.8869310   6.0819310
  61.4049310  57.6019310   5.5179310  61.4279310  57.1479310   6.9619310
  61.6269310  57.0119310   6.1219310  65.6519310  67.4389310   7.7829310
  64.7369310  67.4489310   7.4999310  65.7739310  66.5709310   8.1679310
  65.5499310  67.3289310   7.7959310  55.2739310  63.7559310   4.8669310
  56.0969310  64.2419310   4.8289310  55.3249310  63.2609310   5.6839310
  55.3859310  63.7549310   4.9659310  57.5689310  65.3929310   4.8689310
  57.0459310  66.0959310   5.2549310  57.5809310  65.5889310   3.9329310
  57.5039310  65.5079310   4.7989310  53.5059310  65.6959310  15.8629310
  53.4679310  66.0129310  14.9609310  52.6339310  65.3369310  16.0279310
  53.3889310  65.6899310  15.7689310  66.4639310  51.3399310  10.4319310
  66.6099310  51.7449310  11.2869310  65.5189310  51.4079310  10.2929310
  66.3619310  51.3999310  10.5239310  56.4399310  63.3929310  12.9169310
  56.7649310  62.5899310  13.3239310  55.5709310  63.1609310  12.5909310
  56.3699310  63.2609310  12.9269310  52.0559310  64.3269310  18.8859310
  52.8589310  64.8369310  18.7759310  51.6059310  64.7449310  19.6199310
  52.1009310  64.4459310  18.9659310  62.5519310  61.4749310   8.1459310
  63.0499310  61.2679310   7.3549310  62.7359310  62.3999310   8.3099310
  62.6389310  61.5669310   8.0659310  51.1409310  65.2579310   2.3449310
  51.9079310  64.9349310   2.8199310  50.3989310  65.0189310   2.8999310
  51.1439310  65.1859310   2.4769310  50.4789310  59.0139310  11.0409310
  51.2769310  58.6639310  10.6459310  50.4589310  58.6339310  11.9189310
  50.5779310  58.9199310  11.1029310  59.8729310  62.0709310   8.7689310
  59.4659310  62.8309310   8.3529310  60.7349310  62.0059310   8.3589310
  59.9309310  62.1599310   8.6629310  64.4099310  63.3099310   6.2509310
  65.0839310  63.7219310   6.7909310  63.5999310  63.7559310   6.4969310
  64.3929310  63.4199310   6.3509310  52.5639310  63.8009310   9.7539310
  53.5209310  63.7849310   9.7349310  52.3189310  62.9869310  10.1939310
  52.6549310  63.6949310   9.8079310  68.0319310  62.7389310  11.2369310
  67.6429310  62.2649310  11.9729310  67.4969310  63.5279310  11.1509310
  67.9139310  62.7789310  11.3199310  61.4059310  59.2869310  10.1029310
  62.0319310  59.7369310   9.5359310  61.2639310  58.4399310   9.6789310
  61.4679310  59.2359310   9.9759310  61.4299310  56.0319310   2.8589310
  60.6709310  56.2799310   2.3309310  61.9849310  56.8119310   2.8599310
  61.4039310  56.1639310   2.7919310  53.9649310  59.3249310   4.5759310
  53.8749310  59.0539310   3.6629310  53.0669310  59.4819310   4.8689310
  53.8379310  59.3109310   4.4969310  63.5519310  55.2159310   7.3719310
  62.8899310  55.6219310   6.8119310  64.2469310  54.9529310   6.7689310
  63.5559310  55.2349310   7.2229310  65.1649310  60.4479310  12.7509310
  64.8999310  59.7959310  13.4009310  65.3839310  59.9349310  11.9729310
  65.1589310  60.2989310  12.7349310  55.9109310  62.2409310   6.9759310
  56.0989310  61.4889310   6.4139310  56.7669310  62.6319310   7.1459310
  56.0439310  62.1949310   6.9259310  54.5579310  54.1109310   9.1349310
  54.7289310  55.0319310   9.3339310  55.1239310  53.6269310   9.7359310
  54.6519310  54.1669310   9.2369310  55.4119310  63.2379310   9.5279310
  55.6689310  62.8199310   8.7059310  55.4959310  62.5459310  10.1839310
  55.4559310  63.0959310   9.5069310  66.2179310  53.9769310  18.9509310
  65.6769310  53.4619310  19.5489310  65.7539310  54.8099310  18.8639310
  66.0899310  54.0179310  19.0169310  67.5869310  61.5279310  14.1489310
  66.6909310  61.2029310  14.0619310  67.4869310  62.4229310  14.4739310
  67.4589310  61.6009310  14.1799310  59.7829310  63.2149310   2.1869310
  60.5129310  63.8349310   2.1759310  59.0009310  63.7659310   2.1559310
  59.7759310  63.3649310   2.1809310  59.4149310  60.5959310  11.3029310
  58.9659310  59.8419310  11.6849310  60.1369310  60.2159310  10.8029310
  59.4499310  60.4509310  11.2879310  60.9499310  64.7199310  13.0149310
  60.6739310  65.5439310  13.4169310  61.9009310  64.7069310  13.1239310
  61.0369310  64.8239310  13.0799310  56.4379310  57.3329310   5.2859310
  56.2899310  58.2759310   5.2079310  55.6459310  57.0009310   5.7099310
  56.3179310  57.4109310   5.3299310  55.6939310  57.8219310   1.8809310
  54.7769310  57.6069310   2.0469310  56.1689310  57.4339310   2.6159310
  55.6369310  57.7449310   1.9959310  52.3359310  62.5679310  15.1519310
  51.6569310  63.2069310  15.3719310  51.9269310  61.7189310  15.3149310
  52.1959310  62.5409310  15.2009310  50.4839310  55.4769310  13.7339310
  51.3459310  55.4379310  14.1479310  50.6699310  55.6269310  12.8069310
  50.6179310  55.4909310  13.6679310  61.4009310  63.0099310  11.1009310
  61.1329310  63.6529310  11.7579310  60.6019310  62.8279310  10.6049310
  61.2639310  63.0689310  11.1209310  49.9429310  60.6479310  17.7209310
  49.3429310  61.3809310  17.8619310  50.4899310  60.6309310  18.5069310
  49.9359310  60.7399310  17.8399310  51.2989310  59.5489310   5.7639310
  51.6989310  60.1339310   6.4079310  50.8349310  60.1339310   5.1649310
  51.2909310  59.6989310   5.7699310  61.3779310  61.3439310  13.6629310
  61.2149310  61.6529310  12.7719310  60.5169310  61.0799310  13.9859310
  61.2469310  61.3499310  13.5909310  61.3099310  65.0069310  16.1989310
  60.4919310  64.8509310  15.7279310  61.3579310  65.9589310  16.2879310
  61.2119310  65.1089310  16.1499310  65.6599310  59.7029310  17.4299310
  66.3729310  59.0709310  17.5249310  66.0999310  60.5399310  17.2839310
  65.8069310  59.7289310  17.4229310  51.6889310  61.4849310  10.9519310
  50.9099310  61.9909310  11.1829310  51.4269310  60.5719310  11.0749310
  51.5559310  61.4329310  10.9969310  54.7849310  65.6419310   8.0579310
  54.6979310  66.4219310   8.6069310  54.8569310  64.9179310   8.6809310
  54.7829310  65.6489310   8.2079310  50.4159310  56.7259310   3.2629310
  50.3589310  56.4719310   2.3419310  49.8679310  57.5079310   3.3309310
  50.3389310  56.7939310   3.1539310  54.8869310  60.7829310  15.2419310
  54.7959310  60.6629310  14.2969310  54.1629310  61.3609310  15.4799310
  54.7829310  60.8419310  15.1509310  55.9689310  54.2989310   6.6939310
  55.5639310  53.9679310   7.4959310  56.0759310  53.5249310   6.1419310
  55.9309310  54.1579310   6.7259310  56.5119310  60.3449310   4.5799310
  56.8849310  60.2799310   3.7009310  55.6069310  60.0489310   4.4789310
  56.4439310  60.2979310   4.4549310  56.2109310  67.5019310   3.0139310
  55.4789310  67.0129310   2.6379310  56.8709310  67.5149310   2.3219310
  56.2009310  67.4409310   2.8779310  58.6569310  57.2419310   6.9649310
  57.8049310  57.1039310   6.5529310  58.7069310  58.1889310   7.1009310
  58.5549310  57.3459310   6.9299310  53.5289310  57.9099310  16.1559310
  54.3199310  57.9429310  15.6189310  53.1689310  58.7959310  16.1079310
  53.5839310  58.0269310  16.0809310  64.6849310  56.1629310  17.6249310
  64.7459310  55.8159310  16.7349310  63.7449310  56.2109310  17.7989310
  64.5719310  56.1249310  17.5329310  59.3749310  55.4159310   5.0559310
  59.1499310  56.2009310   5.5549310  60.2739310  55.5679310   4.7639310
  59.4619310  55.5359310   5.0829310  64.8019310  55.1359310   9.9259310
  65.6729310  54.7429310   9.9829310  64.7029310  55.3669310   9.0029310
  64.9009310  55.1149310   9.8149310  64.8269310  59.0009310   5.1739310
  64.6059310  58.7509310   6.0719310  65.6429310  58.5349310   4.9909310
  64.9029310  58.9089310   5.2659310  58.6299310  57.5509310  10.3409310
  57.7789310  57.1199310  10.2539310  58.7289310  57.6979310  11.2819310
  58.5329310  57.5149310  10.4499310  67.5179310  59.0249310   3.0099310
  66.6949310  58.5379310   2.9619310  67.2659310  59.8889310   3.3379310
  67.3809310  59.0729310   3.0459310  64.5749310  66.3579310  17.0289310
  63.9349310  65.8249310  17.5009310  64.5369310  66.0349310  16.1279310
  64.4879310  66.2479310  16.9739310  52.6049310  57.7059310   9.9549310
  52.5109310  57.2389310   9.1249310  53.4279310  57.3829310  10.3199310
  52.6979310  57.6049310   9.8959310  67.2419310  64.1949310  14.8459310
  66.3509310  64.4109310  15.1239310  67.5189310  64.9479310  14.3239310
  67.1629310  64.3189310  14.8149310  66.3099310  66.2169310   5.2779310
  66.3319310  66.3329310   6.2279310  66.4829310  67.0899310   4.9269310
  66.3349310  66.3439310   5.3549310  54.7679310  56.9639310  11.2109310
  55.2199310  56.3849310  11.8249310  55.3309310  56.9789310  10.4379310
  54.8979310  56.8919310  11.1909310  51.3499310  60.0639310  15.4799310
  50.7839310  60.4249310  14.7979310  50.8539310  60.1799310  16.2899310
  51.2139310  60.1249310  15.4959310  64.6689310  65.2339310  14.6299310
  64.0589310  64.4979310  14.6859310  64.2369310  65.8579310  14.0469310
  64.5359310  65.2189310  14.5629310  53.7669310  65.8219310  13.0549310
  53.3059310  66.1659310  12.2899310  53.8479310  64.8839310  12.8829310
  53.7179310  65.7459310  12.9349310  51.9629310  63.4629310   5.2399310
  52.9189310  63.4949310   5.2669310  51.6919310  64.3799310   5.2779310
  52.0509310  63.5839310   5.2479310  56.8029310  58.9219310  18.1829310
  56.0379310  58.5249310  18.6009310  56.5489310  59.8329310  18.0349310
  56.6719310  58.9879310  18.2179310  53.3219310  56.7529310   3.2109310
  53.6299310  56.8179310   4.1149310  52.4039310  56.4949310   3.2899310
  53.2439310  56.7279310   3.3369310  62.6309310  61.0139310   5.5949310
  63.2509310  61.4579310   5.0159310  61.8209310  61.5179310   5.5099310
  62.6069310  61.1359310   5.5099310  63.5239310  67.0929310  12.6489310
  63.3509310  67.0159310  11.7109310  64.3069310  67.6399310  12.7039310
  63.6019310  67.1529310  12.5359310  58.3419310  63.4769310   6.9679310
  58.8559310  62.8769310   6.4279310  58.0679310  64.1669310   6.3639310
  58.3719310  63.4879310   6.8219310  68.3989310  58.0419310   7.0129310
  68.9809310  58.5269310   6.4269310  67.8329310  58.7119310   7.3959310
  68.4009310  58.1899310   6.9869310  62.7779310  64.8179310  18.3209310
  61.9669310  64.8559310  17.8139310  63.1419310  63.9549310  18.1259310
  62.7209310  64.7129310  18.2309310  56.1179310  56.8609310   8.8789310
  55.9399310  57.4509310   8.1469310  56.6029310  56.1339310   8.4889310
  56.1569310  56.8439310   8.7359310  49.7229310  63.4509310   7.4559310
  50.3199310  63.7069310   6.7519310  50.0259310  63.9459310   8.2179310
  49.8379310  63.5469310   7.4629310  52.4039310  66.9579310  11.2609310
  52.6629310  67.6509310  10.6529310  51.5319310  67.2169310  11.5599310
  52.3259310  67.0799310  11.2209310  66.0919310  64.5479310   8.2419310
  66.9449310  64.2069310   7.9719310  66.1139310  64.5189310   9.1979310
  66.2039310  64.4999310   8.3289310  59.0219310  61.4589310  16.1469310
  58.2679310  61.1289310  15.6579310  58.8209310  61.2609310  17.0609310
  58.8999310  61.3909310  16.2009310  62.5719310  60.7819310  18.2159310
  61.7879310  60.7429310  18.7639310  63.2089310  60.2309310  18.6699310
  62.5529310  60.7069310  18.3439310  68.1679310  54.5739310   7.7499310
  67.5719310  54.2239310   8.4119310  68.8859310  53.9419310   7.7149310
  68.1839310  54.4489310   7.8299310  64.2379310  65.2189310   3.4569310
  64.6339310  65.5599310   4.2589310  64.7289310  65.6379310   2.7499310
  64.3509310  65.3159310   3.4689310  63.9669310  59.3049310  15.4189310
  64.6599310  59.4989310  16.0509310  63.3309310  60.0109310  15.5369310
  63.9739310  59.4199310  15.5149310  56.5439310  37.3789310  70.3179310
  56.7719310  37.3509310  71.2469310  55.9149310  36.6669310  70.2049310
  56.4929310  37.2839310  70.4229310  53.9429310  51.5649310  70.5779310
  52.9889310  51.4969310  70.5459310  54.1319310  51.8719310  71.4639310
  53.8449310  51.5959310  70.6869310  58.7079310  49.0089310  63.7409310
  58.5339310  49.1699310  64.6689310  57.9429310  48.5229310  63.4349310
  58.5879310  48.9669310  63.8209310  54.4599310  35.6649310  69.8239310
  53.8999310  36.1129310  70.4579310  54.3139310  34.7339310  69.9909310
  54.3699310  35.6029310  69.9259310  55.2789310  43.9059310  59.0719310
  55.1249310  44.3629310  59.8989310  55.9909310  43.2959310  59.2639310
  55.3499310  43.8859310  59.2019310  58.6739310  39.1149310  69.6769310
  58.0709310  38.4739310  70.0519310  59.4629310  39.0459310  70.2149310
  58.6979310  39.0249310  69.7939310  65.4399310  50.0649310  57.2579310
  64.5779310  50.3929310  57.0019310  65.3439310  49.1129310  57.2569310
  65.3169310  49.9849310  57.2249310  52.1659310  50.1619310  64.0349310
  52.2039310  51.0549310  63.6909310  51.3669310  50.1409310  64.5609310
  52.0689310  50.2739310  64.0579310  56.8769310  51.9519310  60.7239310
  56.0779310  51.4249310  60.7339310  57.2209310  51.8489310  59.8369310
  56.8189310  51.8709310  60.6119310  61.0969310  38.9409310  70.9449310
  61.2749310  38.0589310  71.2709310  61.4159310  39.5209310  71.6369310
  61.1609310  38.9019310  71.0759310  60.7849310  46.9369310  63.1909310
  60.3589310  46.3299310  62.5869310  60.1219310  47.6039310  63.3689310
  60.6459310  46.9449310  63.1369310  66.5369310  37.5689310  62.4439310
  66.6049310  36.6219310  62.3199310  67.4059310  37.8339310  62.7449310
  66.6569310  37.4819310  62.4669310  67.6559310  41.8599310  64.2849310
  66.8769310  41.9699310  64.8299310  67.9999310  42.7459310  64.1759310
  67.5999310  41.9869310  64.3409310  58.7519310  37.9879310  58.4329310
  58.4859310  37.5249310  59.2279310  58.7679310  37.3109310  57.7569310
  58.7199310  37.8419310  58.4489310  58.9869310  45.1759310  71.7169310
  58.8589310  44.3109310  72.1059310  59.4299310  45.0009310  70.8859310
  59.0269310  45.0429310  71.6599310  61.8629310  46.1279310  58.7359310
  62.6329310  46.1489310  59.3029310  62.1819310  45.7609310  57.9119310
  62.0019310  46.0839310  58.7029310  67.5989310  45.7649310  60.4659310
  67.2329310  46.4059310  61.0759310  66.8339310  45.3429310  60.0739310
  67.4539310  45.7929310  60.4939310  50.1109310  39.5059310  70.2739310
  50.3879310  40.0749310  70.9919310  49.5089310  38.8829310  70.6809310
  50.0699310  39.4989310  70.4179310  65.5809310  47.3649310  57.4829310
  65.6229310  47.2309310  56.5359310  66.4669310  47.6319310  57.7259310
  65.6999310  47.3819310  57.3929310  50.9839310  45.8429310  72.8669310
  50.0629310  45.6229310  72.7269310  51.0639310  45.9499310  73.8139310
  50.8759310  45.8279310  72.9699310  65.9239310  37.7949310  59.5709310
  66.0559310  37.6509310  60.5079310  65.0559310  38.1939310  59.5109310
  65.8299310  37.8269310  59.6839310  62.5739310  49.5319310  64.0719310
  62.7499310  50.3819310  63.6689310  61.8149310  49.1949310  63.5979310
  62.4999310  49.5979310  63.9599310  62.3639310  52.8569310  65.3239310
  62.9499310  53.5939310  65.1489310  61.5819310  53.0429310  64.8049310
  62.3389310  52.9749310  65.2349310  54.6859310  40.1119310  63.8439310
  54.2789310  40.1109310  62.9769310  54.1999310  40.7749310  64.3349310
  54.5719310  40.1969310  63.7959310  52.8049310  36.5079310  71.8619310
  53.0119310  37.4059310  72.1189310  52.4489310  36.1069310  72.6549310
  52.7859310  36.5709310  71.9959310  54.1129310  37.2989310  62.5619310
  53.3549310  37.2859310  63.1469310  54.6449310  36.5549310  62.8429310
  54.0839310  37.2019310  62.6729310  61.1529310  40.9969310  72.8609310
  61.7389310  41.3099310  73.5499310  60.4269310  41.6219310  72.8609310
  61.1349310  41.1169310  72.9489310  58.7729310  41.4979310  62.3929310
  57.9479310  41.4799310  61.9079310  58.5219310  41.3119310  63.2979310
  58.6349310  41.4719310  62.4469310  55.8869310  51.1629310  67.0099310
  55.6259310  50.7879310  67.8509310  56.6179310  50.6179310  66.7209310
  55.9469310  51.0449310  67.0799310  54.1249310  49.3559310  65.7249310
  53.4009310  49.6589310  65.1769310  54.7189310  50.1059310  65.7729310
  54.1089310  49.4909310  65.6609310  53.5979310  43.1199310  57.0629310
  52.9949310  43.8569310  56.9669310  54.2269310  43.4099310  57.7239310
  53.6009310  43.2509310  57.1349310  58.0249310  51.5819310  58.3559310
  58.4839310  50.7599310  58.5279310  58.7229310  52.2219310  58.2169310
  58.1729310  51.5589310  58.3599310  56.7479310  42.0729310  67.3379310
  57.6289310  42.3649310  67.5699310  56.8339310  41.7389310  66.4449310
  56.8719310  42.0679310  67.2529310  61.0449310  37.8919310  65.5219310
  60.0929310  37.8289310  65.5929310  61.3729310  37.1639310  66.0499310
  60.9649310  37.7909310  65.5989310  66.1739310  45.8999310  67.6439310
  66.6139310  46.4069310  68.3269310  65.5019310  45.4029310  68.1099310
  66.1449310  45.9009310  67.7909310  67.3889310  47.6679310  69.8719310
  66.6749310  48.2729310  69.6729310  68.1049310  48.2309310  70.1689310
  67.3899310  47.8169310  69.8849310  60.9009310  48.7289310  58.8099310
  61.2049310  47.8359310  58.9659310  61.4279310  49.2689310  59.3989310
  61.0069310  48.6839310  58.9049310  63.5239310  39.2169310  59.3859310
  63.6279310  39.5609310  60.2729310  63.3939310  39.9929310  58.8409310
  63.5209310  39.3599310  59.4299310  66.1659310  40.0649310  66.7129310
  67.0779310  40.0759310  67.0059310  66.1659310  39.4799310  65.9549310
  66.2829310  39.9909310  66.6539310  64.0109310  44.4019310  68.5639310
  63.1359310  44.1449310  68.2739310  64.3629310  43.6189310  68.9879310
  63.9439310  44.2689310  68.5809310  53.7199310  51.3179310  73.7219310
  53.4679310  52.2219310  73.9129310  54.6249310  51.2529310  74.0249310
  53.8039310  51.4259310  73.7849310  55.7529310  36.3909310  57.3729310
  56.0949310  36.3999310  58.2669310  55.2679310  37.2129310  57.2949310
  55.7349310  36.4979310  57.4769310  50.9219310  36.3069310  67.2769310
  51.7559310  36.7609310  67.1529310  50.3339310  36.7059310  66.6369310
  50.9539310  36.4159310  67.1799310  58.3559310  40.9019310  65.0269310
  58.4419310  40.1179310  65.5699310  58.7959310  41.5889310  65.5269310
  58.4229310  40.8899310  65.1599310  67.0179310  38.5199310  74.3669310
  66.1189310  38.1919310  74.3619310  67.3429310  38.3429310  73.4849310
  66.9439310  38.4549310  74.2539310  67.0339310  49.6419310  60.3629310
  67.1549310  50.5169310  59.9949310  67.2429310  49.0479310  59.6419310
  67.0759310  49.6779310  60.2229310  65.4519310  35.0409310  59.2409310
  65.5799310  35.9559310  58.9889310  64.5029310  34.9459310  59.3259310
  65.3469310  35.1459310  59.2199310  51.4309310  53.1239310  61.5459310
  50.6499310  52.9929310  61.0079310  51.4009310  54.0489310  61.7899310
  51.3269310  53.2259310  61.5079310  61.4819310  48.9259310  73.4969310
  62.0639310  48.7619310  74.2379310  60.8889310  49.6119310  73.8049310
  61.4799310  48.9929310  73.6309310  57.7839310  49.3899310  66.2359310
  57.3039310  48.5819310  66.4129310  58.5139310  49.3759310  66.8549310
  57.8159310  49.2849310  66.3379310  68.6269310  36.3789310  57.2419310
  68.4509310  37.2199310  56.8209310  67.8179310  35.8799310  57.1279310
  68.5009310  36.4229310  57.1739310  71.1959310  42.3069310  64.6199310
  71.2099310  41.9939310  65.5249310  71.1469310  43.2599310  64.6969310
  71.1919310  42.3889310  64.7459310  60.5889310  40.2429310  58.5029310
  59.9629310  39.5189310  58.5269310  60.8069310  40.4019310  59.4209310
  60.5369310  40.1709310  58.6229310  57.3269310  41.8909310  70.6229310
  56.4819310  41.5709310  70.9399310  57.7999310  41.0999310  70.3639310
  57.2789310  41.7489310  70.6309310  53.1619310  51.6489310  60.0799310
  52.5799310  52.1469310  60.6529310  53.3909310  52.2599310  59.3799310
  53.1169310  51.7909310  60.0639310  67.0549310  37.7579310  71.7979310
  66.1889310  37.5939310  71.4269310  67.6369310  37.1659310  71.3199310
  67.0189310  37.6609310  71.6889310  66.7609310  43.2079310  58.5039310
  66.3039310  42.9669310  59.3099310  67.6869310  43.0679310  58.7029310
  66.8209310  43.1589310  58.6329310  56.5159310  46.1169310  71.9849310
  57.3959310  45.7439310  71.9329310  55.9779310  45.5359310  71.4479310
  56.5599310  45.9949310  71.9099310  65.5049310  49.8279310  70.3419310
  65.1539310  49.7249310  71.2269310  65.6529310  50.7699310  70.2519310
  65.4789310  49.9349310  70.4439310  67.6419310  51.5949310  72.2209310
  67.8399310  51.1999310  73.0709310  66.9709310  52.2499310  72.4119310
  67.5809310  51.6279310  72.3539310  64.8859310  38.9249310  64.0919310
  65.5819310  38.5389310  63.5589310  64.2759310  38.2029310  64.2469310
  64.8969310  38.7829310  64.0429310  62.9599310  44.3739310  71.6339310
  62.4029310  43.9799310  70.9619310  62.3839310  44.9839310  72.0939310
  62.8149310  44.4019310  71.6069310  60.7869310  40.3609310  61.1669310
  59.9639310  40.6439310  61.5629310  61.4649310  40.7469310  61.7219310
  60.7689310  40.4459310  61.2889310  53.7989310  43.9519310  69.2599310
  53.4219310  43.8249310  70.1299310  53.2359310  43.4409310  68.6779310
  53.6789310  43.8709310  69.2969310  62.8059310  45.4619310  64.7149310
  63.3509310  45.9629310  65.3219310  62.1119310  46.0689310  64.4579310
  62.7869310  45.6029310  64.7599310  50.7889310  47.0279310  65.5359310
  51.1829310  46.9579310  64.6659310  51.4009310  46.5729310  66.1129310
  50.9179310  46.9609310  65.4979310  65.5099310  42.7079310  60.9079310
  65.4669310  43.3269310  61.6379310  65.1439310  41.8969310  61.2599310
  65.4579310  42.6839310  61.0469310  60.2599310  43.5719310  61.3869310
  59.5879310  42.8909310  61.4169310  60.3389310  43.7889310  60.4579310
  60.1839310  43.5129310  61.2719310  61.4459310  52.5509310  70.5049310
  60.8969310  52.4819310  69.7249310  61.8099310  51.6739310  70.6209310
  61.4229310  52.4299310  70.4199310  54.9249310  40.8729310  69.3019310
  54.3349310  40.1339310  69.1499310  55.5369310  40.8449310  68.5669310
  54.9279310  40.7749310  69.1879310  56.3099310  47.0649310  67.3339310
  56.2699310  46.1099310  67.2969310  55.8549310  47.2929310  68.1439310
  56.2469310  46.9719310  67.4329310  64.2749310  43.7179310  74.0159310
  63.5839310  43.0779310  74.1839310  64.0669310  44.0739310  73.1529310
  64.1599310  43.6809310  73.9269310  49.8929310  42.8199310  61.1529310
  50.5579310  43.4199310  61.4909310  49.0609310  43.2539310  61.3419310
  49.8719310  42.9519310  61.2209310  52.2259310  47.2649310  63.3549310
  52.9049310  46.9849310  63.9689310  52.3239310  48.2149310  63.3059310
  52.3249310  47.3509310  63.4279310  57.6399310  46.0009310  58.4419310
  57.2569310  45.6919310  57.6209310  57.8789310  46.9119310  58.2669310
  57.6219310  46.0779310  58.3149310  51.8959310  37.4559310  64.1199310
  51.6579310  36.6369310  63.6859310  51.1349310  38.0239310  63.9929310
  51.7679310  37.4239310  64.0479310  56.4669310  36.2709310  60.1239310
  56.7119310  35.3959310  60.4249310  56.2519310  36.7479310  60.9249310
  56.4709310  36.2199310  60.2649310  61.6989310  38.0199310  62.6619310
  61.4049310  38.7349310  62.0979310  61.4279310  38.2809310  63.5419310
  61.6269310  38.1449310  62.7019310  60.1529310  49.6759310  67.7439310
  60.0889310  49.1559310  68.5459310  60.6979310  50.4249310  67.9869310
  60.2139310  49.7049310  67.8779310  65.6519310  48.5719310  64.3629310
  64.7369310  48.5819310  64.0799310  65.7739310  47.7039310  64.7479310
  65.5499310  48.4619310  64.3759310  53.3049310  40.5359310  58.1579310
  52.3799310  40.2929310  58.1959310  53.3009310  41.4559310  57.8929310
  53.1869310  40.6229310  58.1289310  55.2739310  44.8889310  61.4469310
  56.0969310  45.3749310  61.4089310  55.3249310  44.3939310  62.2639310
  55.3859310  44.8879310  61.5459310  51.9649310  52.7639310  65.5229310
  51.4229310  53.1869310  66.1899310  52.8639310  52.9609310  65.7849310
  52.0099310  52.8439310  65.6419310  57.5689310  46.5259310  61.4489310
  57.0459310  47.2289310  61.8349310  57.5809310  46.7219310  60.5129310
  57.5039310  46.6409310  61.3789310  64.6119310  41.3929310  57.6129310
  65.0899310  41.0399310  56.8639310  65.1139310  42.1649310  57.8759310
  64.7369310  41.4469310  57.5509310  53.5059310  46.8289310  72.4429310
  53.4679310  47.1459310  71.5409310  52.6339310  46.4699310  72.6079310
  53.3889310  46.8229310  72.3489310  57.4139310  48.5689310  71.0179310
  56.6309310  48.9749310  70.6489310  57.1259310  47.6979310  71.2909310
  57.2769310  48.5089310  71.0059310  51.1519310  50.5809310  67.7609310
  51.8069310  50.9419310  67.1639310  50.4739310  50.2259310  67.1859310
  51.1489310  50.5819310  67.6109310  66.4639310  32.4729310  67.0119310
  66.6099310  32.8779310  67.8669310  65.5189310  32.5409310  66.8729310
  66.3619310  32.5329310  67.1039310  56.4399310  44.5259310  69.4969310
  56.7649310  43.7229310  69.9039310  55.5709310  44.2939310  69.1709310
  56.3699310  44.3939310  69.5069310  62.5519310  42.6079310  64.7259310
  63.0499310  42.4009310  63.9349310  62.7359310  43.5329310  64.8899310
  62.6389310  42.6999310  64.6459310  57.1769310  41.3539310  58.4669310
  56.6959310  40.5369310  58.3359310  57.6109310  41.5129310  57.6289310
  57.1709310  41.2699310  58.3429310  51.1409310  46.3909310  58.9249310
  51.9079310  46.0679310  59.3999310  50.3989310  46.1519310  59.4799310
  51.1439310  46.3189310  59.0569310  67.2399310  53.3799310  66.7939310
  67.0929310  52.4369310  66.8749310  67.8939310  53.5779310  67.4649310
  67.3049310  53.2839310  66.8899310  68.5729310  49.6579310  65.5799310
  67.7289310  50.0709310  65.7639310  68.4409310  48.7359310  65.7979310
  68.4479310  49.5929310  65.6309310  50.4789310  40.1469310  67.6209310
  51.2769310  39.7969310  67.2259310  50.4589310  39.7669310  68.4989310
  50.5779310  40.0529310  67.6829310  59.8729310  43.2039310  65.3489310
  59.4659310  43.9639310  64.9329310  60.7349310  43.1389310  64.9389310
  59.9309310  43.2929310  65.2429310  64.4099310  44.4429310  62.8309310
  65.0839310  44.8549310  63.3709310  63.5999310  44.8889310  63.0769310
  64.3929310  44.5529310  62.9309310  52.5639310  44.9339310  66.3339310
  53.5209310  44.9179310  66.3149310  52.3189310  44.1199310  66.7739310
  52.6549310  44.8279310  66.3879310  62.8669310  38.9439310  68.8729310
  62.4129310  39.3859310  68.1549310  62.3249310  39.1189310  69.6419310
  62.7399310  39.0229310  68.8789310  68.0319310  43.8719310  67.8169310
  67.6429310  43.3979310  68.5529310  67.4969310  44.6609310  67.7309310
  67.9139310  43.9119310  67.8999310  61.4059310  40.4199310  66.6829310
  62.0319310  40.8699310  66.1159310  61.2639310  39.5729310  66.2589310
  61.4679310  40.3689310  66.5559310  59.9409310  48.2969310  70.1819310
  60.3339310  49.1179310  70.4779310  59.0279310  48.3519310  70.4639310
  59.8749310  48.4089310  70.2559310  61.4299310  37.1649310  59.4389310
  60.6709310  37.4129310  58.9109310  61.9849310  37.9449310  59.4399310
  61.4039310  37.2969310  59.3719310  53.9649310  40.4579310  61.1559310
  53.8749310  40.1869310  60.2429310  53.0669310  40.6149310  61.4489310
  53.8379310  40.4439310  61.0769310  63.5519310  36.3489310  63.9519310
  62.8899310  36.7549310  63.3919310  64.2469310  36.0859310  63.3489310
  63.5559310  36.3679310  63.8029310  65.1649310  41.5809310  69.3309310
  64.8999310  40.9289310  69.9809310  65.3839310  41.0679310  68.5529310
  65.1589310  41.4319310  69.3149310  55.9109310  43.3739310  63.5559310
  56.0989310  42.6219310  62.9939310  56.7669310  43.7649310  63.7259310
  56.0439310  43.3279310  63.5059310  57.5669310  38.2339310  72.7959310
  58.4889310  38.3099310  73.0399310  57.1149310  38.8509310  73.3709310
  57.6269310  38.3219310  72.8999310  54.5579310  35.2439310  65.7149310
  54.7289310  36.1649310  65.9139310  55.1239310  34.7599310  66.3159310
  54.6519310  35.2999310  65.8169310  58.3609310  48.5809310  57.8389310
  59.2049310  48.5429310  58.2899310  58.5839310  48.7859310  56.9309310
  58.4979310  48.6019310  57.7809310  55.4119310  44.3709310  66.1079310
  55.6689310  43.9529310  65.2859310  55.4959310  43.6789310  66.7639310
  55.4559310  44.2289310  66.0869310  62.7239310  48.8259310  66.5669310
  62.8219310  49.0729310  65.6469310  61.8699310  49.1759310  66.8189310
  62.6269310  48.9019310  66.4819310  60.1139310  53.2399310  63.9059310
  59.9289310  52.4129310  63.4599310  59.8019310  53.9129310  63.3009310
  60.0499310  53.2199310  63.7709310  61.7019310  52.4749310  56.9959310
  61.8599310  53.3139310  56.5629310  61.9639310  52.6219310  57.9049310
  61.7559310  52.6009310  57.0569310  63.8119310  51.2519310  67.1059310
  63.2679310  51.8519310  66.5949310  63.4209310  50.3909310  66.9599310
  63.6929310  51.2189310  67.0219310  67.5869310  42.6609310  70.7289310
  66.6909310  42.3359310  70.6419310  67.4869310  43.5559310  71.0539310
  67.4589310  42.7339310  70.7599310  57.9039310  53.6199310  66.0789310
  57.8699310  52.9329310  66.7439310  58.3799310  53.2249310  65.3489310
  57.9599310  53.4819310  66.0709310  59.7829310  44.3479310  58.7669310
  60.5129310  44.9679310  58.7559310  59.0009310  44.8989310  58.7359310
  59.7759310  44.4979310  58.7609310  59.4149310  41.7289310  67.8829310
  58.9659310  40.9749310  68.2649310  60.1369310  41.3489310  67.3829310
  59.4499310  41.5839310  67.8679310  60.9499310  45.8529310  69.5949310
  60.6739310  46.6769310  69.9969310  61.9009310  45.8399310  69.7039310
  61.0369310  45.9569310  69.6599310  56.4379310  38.4659310  61.8659310
  56.2899310  39.4089310  61.7879310  55.6459310  38.1339310  62.2899310
  56.3179310  38.5439310  61.9099310  60.3059310  53.0759310  67.8439310
  61.0959310  53.6139310  67.7899310  59.7059310  53.4679310  67.2099310
  60.3299310  53.1949310  67.7559310  55.6939310  38.9549310  58.4609310
  54.7769310  38.7399310  58.6269310  56.1689310  38.5669310  59.1959310
  55.6369310  38.8779310  58.5759310  52.3359310  43.7009310  71.7319310
  51.6569310  44.3399310  71.9519310  51.9269310  42.8519310  71.8949310
  52.1959310  43.6739310  71.7809310  63.2959310  51.7059310  62.6959310
  62.9279310  52.2869310  63.3609310  64.1869310  52.0289310  62.5619310
  63.3629310  51.8219310  62.7639310  50.4839310  36.6099310  70.3139310
  51.3459310  36.5709310  70.7279310  50.6699310  36.7599310  69.3869310
  50.6179310  36.6239310  70.2479310  61.4009310  44.1429310  67.6809310
  61.1329310  44.7859310  68.3379310  60.6019310  43.9609310  67.1849310
  61.2639310  44.2019310  67.7009310  51.2989310  40.6819310  62.3439310
  51.6989310  41.2669310  62.9879310  50.8349310  41.2669310  61.7449310
  51.2909310  40.8319310  62.3499310  61.3779310  42.4769310  70.2429310
  61.2149310  42.7859310  69.3519310  60.5169310  42.2129310  70.5659310
  61.2469310  42.4829310  70.1709310  61.5999310  36.6979310  74.3809310
  61.5969310  36.4079310  73.4689310  60.9279310  37.3789310  74.4179310
  61.5129310  36.7479310  74.2689310  53.2589310  35.3609310  58.3889310
  53.2599310  36.1029310  58.9929310  53.7629310  35.6649310  57.6349310
  53.3239310  35.4949310  58.3699310  54.1749310  47.3969310  58.6729310
  54.2609310  47.3459310  57.7209310  53.6219310  48.1649310  58.8219310
  54.1149310  47.4889310  58.5699310  61.3099310  46.1399310  72.7789310
  60.4919310  45.9839310  72.3079310  61.3579310  47.0919310  72.8679310
  61.2119310  46.2419310  72.7299310  65.6599310  40.8359310  74.0099310
  66.3729310  40.2039310  74.1049310  66.0999310  41.6729310  73.8639310
  65.8069310  40.8619310  74.0029310  51.6889310  42.6179310  67.5319310
  50.9099310  43.1239310  67.7629310  51.4269310  41.7049310  67.6549310
  51.5559310  42.5659310  67.5769310  67.1329310  52.1129310  69.5789310
  67.4149310  52.0169310  70.4889310  66.3519310  52.6639310  69.6279310
  67.0689310  52.1709310  69.7019310  54.7849310  46.7749310  64.6379310
  54.6979310  47.5549310  65.1869310  54.8569310  46.0509310  65.2609310
  54.7829310  46.7819310  64.7879310  50.4159310  37.8589310  59.8429310
  50.3589310  37.6049310  58.9219310  49.8679310  38.6409310  59.9109310
  50.3389310  37.9269310  59.7339310  54.8869310  41.9159310  71.8219310
  54.7959310  41.7959310  70.8769310  54.1629310  42.4939310  72.0599310
  54.7829310  41.9749310  71.7309310  55.9689310  35.4319310  63.2739310
  55.5639310  35.1009310  64.0759310  56.0759310  34.6579310  62.7219310
  55.9309310  35.2909310  63.3059310  67.0539310  50.8909310  63.0139310
  67.1239310  50.2619310  63.7309310  67.1199310  50.3589310  62.2209310
  67.0709310  50.7429310  63.0039310  56.5119310  41.4779310  61.1599310
  56.8849310  41.4129310  60.2809310  55.6069310  41.1819310  61.0589310
  56.4439310  41.4309310  61.0349310  56.2109310  48.6349310  59.5939310
  55.4789310  48.1459310  59.2179310  56.8709310  48.6479310  58.9019310
  56.2009310  48.5739310  59.4579310  58.6569310  38.3749310  63.5449310
  57.8049310  38.2369310  63.1329310  58.7069310  39.3219310  63.6809310
  58.5549310  38.4789310  63.5099310  51.1569310  51.9799310  70.1649310
  50.8639310  51.7069310  69.2949310  50.8489310  52.8819310  70.2489310
  51.0799310  52.0599310  70.0639310  53.5289310  39.0429310  72.7359310
  54.3199310  39.0759310  72.1989310  53.1689310  39.9289310  72.6879310
  53.5839310  39.1599310  72.6609310  59.7019310  42.0459310  56.7839310
  59.6829310  42.6959310  57.4859310  60.0569310  41.2579310  57.1959310
  59.7449310  42.0289310  56.9259310  64.6849310  37.2959310  74.2049310
  64.7459310  36.9489310  73.3149310  63.7449310  37.3439310  74.3789310
  64.5719310  37.2579310  74.1129310  55.0719310  49.3439310  69.5629310
  54.5019310  50.0309310  69.9099310  54.6199310  48.5279310  69.7769310
  54.9409310  49.3279310  69.6349310  61.6639310  50.9249310  60.6539310
  60.9789310  50.8529310  61.3189310  62.4619310  51.1029310  61.1509310
  61.6779310  50.9379310  60.8029310  59.3749310  36.5489310  61.6359310
  59.1499310  37.3339310  62.1349310  60.2739310  36.7009310  61.3439310
  59.4619310  36.6689310  61.6629310  64.8019310  36.2689310  66.5059310
  65.6729310  35.8759310  66.5629310  64.7029310  36.4999310  65.5829310
  64.9009310  36.2479310  66.3949310  61.7099310  36.5359310  71.6399310
  61.4499310  35.7599310  71.1429310  62.6659310  36.5409310  71.5919310
  61.7989310  36.4369310  71.5699310  64.8269310  40.1339310  61.7539310
  64.6059310  39.8839310  62.6519310  65.6429310  39.6679310  61.5709310
  64.9029310  40.0419310  61.8459310  62.6729310  49.8969310  56.9009310
  62.2729310  50.7649310  56.9509310  62.1969310  49.3759310  57.5479310
  62.5609310  49.9419310  56.9899310  58.6299310  38.6839310  66.9209310
  57.7789310  38.2529310  66.8339310  58.7289310  38.8309310  67.8619310
  58.5329310  38.6479310  67.0299310  56.0519310  48.2179310  62.7569310
  55.4159310  47.7629310  63.3079310  55.5639310  48.9519310  62.3839310
  55.9089310  48.2539310  62.7799310  61.9299310  49.8889310  70.9619310
  61.7269310  49.5789310  71.8439310  62.4439310  49.1809310  70.5719310
  61.9699310  49.7579310  71.0249310  67.5179310  40.1579310  59.5899310
  66.6949310  39.6709310  59.5419310  67.2659310  41.0219310  59.9179310
  67.3809310  40.2059310  59.6259310  64.5749310  47.4909310  73.6089310
  63.9349310  46.9579310  74.0809310  64.5369310  47.1679310  72.7079310
  64.4879310  47.3809310  73.5539310  58.3419310  49.8589310  73.7439310
  57.9549310  49.4939310  72.9479310  57.6939310  50.4879310  74.0589310
  58.2089310  49.8919310  73.6829310  50.7019310  49.2129310  71.1129310
  50.3199310  50.0559310  71.3569310  51.5259310  49.4389310  70.6819310
  50.7579310  49.3499310  71.0889310  52.6049310  38.8389310  66.5349310
  52.5109310  38.3719310  65.7049310  53.4279310  38.5159310  66.8999310
  52.6979310  38.7379310  66.4759310  67.2419310  45.3279310  71.4259310
  66.3509310  45.5439310  71.7039310  67.5189310  46.0809310  70.9039310
  67.1629310  45.4519310  71.3949310  66.3099310  47.3499310  61.8579310
  66.3319310  47.4659310  62.8079310  66.4829310  48.2229310  61.5069310
  66.3349310  47.4769310  61.9349310  65.6849310  53.2899310  62.1649310
  65.4209310  53.2549310  61.2459310  66.3069310  52.5689310  62.2639310
  65.7309310  53.1929310  62.0599310  62.8589310  53.2859310  59.6759310
  62.3429310  52.6009310  60.1019310  62.3759310  54.0929310  59.8499310
  62.7309310  53.3009310  59.7529310  54.7679310  38.0969310  67.7909310
  55.2199310  37.5179310  68.4049310  55.3309310  38.1119310  67.0179310
  54.8979310  38.0249310  67.7709310  51.3499310  41.1969310  72.0599310
  50.7839310  41.5579310  71.3779310  50.8539310  41.3129310  72.8699310
  51.2139310  41.2579310  72.0759310  62.5959310  54.8289310  67.9769310
  63.3709310  54.6729310  67.4379310  62.5649310  55.7799310  68.0829310
  62.6909310  54.9309310  67.9219310  59.1659310  51.2409310  62.2059310
  58.9279310  50.4279310  62.6499310  58.3609310  51.5189310  61.7689310
  59.0329310  51.1729310  62.2069310  64.3589310  50.6609310  73.5129310
  64.6289310  49.7569310  73.6729310  63.4069310  50.6479310  73.6139310
  64.2719310  50.5439310  73.5469310  64.6689310  46.3669310  71.2099310
  64.0589310  45.6309310  71.2659310  64.2369310  46.9909310  70.6269310
  64.5359310  46.3519310  71.1429310  53.7669310  46.9549310  69.6349310
  53.3059310  47.2989310  68.8699310  53.8479310  46.0169310  69.4629310
  53.7179310  46.8789310  69.5149310  51.9629310  44.5959310  61.8199310
  52.9189310  44.6279310  61.8469310  51.6919310  45.5129310  61.8579310
  52.0509310  44.7169310  61.8279310  53.3219310  37.8859310  59.7909310
  53.6299310  37.9509310  60.6949310  52.4039310  37.6279310  59.8699310
  53.2439310  37.8609310  59.9169310  62.6309310  42.1469310  62.1749310
  63.2509310  42.5909310  61.5959310  61.8209310  42.6509310  62.0899310
  62.6069310  42.2689310  62.0899310  49.2509310  48.1989310  58.1359310
  49.8789310  47.6759310  58.6349310  49.7449310  48.5049310  57.3749310
  49.3949310  48.1709310  58.1029310  54.9229310  50.2829310  61.4069310
  54.2229310  50.6809310  60.8899310  55.3549310  49.6799310  60.8009310
  54.8889310  50.2569310  61.2629310  63.5239310  48.2259310  69.2289310
  63.3509310  48.1489310  68.2909310  64.3069310  48.7729310  69.2839310
  63.6019310  48.2859310  69.1159310  58.3419310  44.6099310  63.5479310
  58.8559310  44.0099310  63.0079310  58.0679310  45.2999310  62.9439310
  58.3719310  44.6209310  63.4019310  65.3699310  53.1769310  72.8389310
  65.7789310  53.3489310  73.6869310  65.1009310  52.2599310  72.8839310
  65.3879310  53.0819310  72.9529310  64.3839310  37.8389310  71.1069310
  64.0969310  38.6649310  71.4979310  64.1609310  37.9229310  70.1799310
  64.3179310  37.9559310  71.0389310  68.0369310  52.4689310  59.8369310
  68.6239310  52.2919310  59.1019310  67.4459310  53.1489310  59.5129310
  68.0359310  52.5329310  59.7009310  50.8289310  51.9649310  57.5939310
  51.3859310  51.2059310  57.7659310  51.3969310  52.7189310  57.7499310
  50.9729310  51.9639310  57.6359310  68.3989310  39.1749310  63.5929310
  68.9809310  39.6599310  63.0069310  67.8329310  39.8449310  63.9759310
  68.4009310  39.3229310  63.5669310  56.1179310  37.9939310  65.4589310
  55.9399310  38.5839310  64.7269310  56.6029310  37.2669310  65.0689310
  56.1569310  37.9769310  65.3159310  49.7229310  44.5839310  64.0359310
  50.3199310  44.8399310  63.3319310  50.0259310  45.0789310  64.7979310
  49.8379310  44.6799310  64.0429310  52.4039310  48.0909310  67.8409310
  52.6629310  48.7839310  67.2329310  51.5319310  48.3499310  68.1399310
  52.3259310  48.2129310  67.8009310  66.0919310  45.6809310  64.8219310
  66.9449310  45.3399310  64.5519310  66.1139310  45.6519310  65.7779310
  66.2039310  45.6329310  64.9089310  59.0219310  42.5919310  72.7269310
  58.2679310  42.2619310  72.2379310  58.8209310  42.3939310  73.6409310
  58.8999310  42.5239310  72.7809310  68.1679310  35.7069310  64.3299310
  67.5719310  35.3569310  64.9919310  68.8859310  35.0749310  64.2949310
  68.1839310  35.5819310  64.4099310  64.2379310  46.3519310  60.0369310
  64.6339310  46.6929310  60.8389310  64.7289310  46.7709310  59.3299310
  64.3509310  46.4489310  60.0489310  63.9669310  40.4379310  71.9989310
  64.6599310  40.6319310  72.6309310  63.3309310  41.1439310  72.1169310
  63.9739310  40.5529310  72.0949310  64.4319310  52.7079310  69.4739310
  63.9589310  53.5409310  69.4669310  63.9009310  52.1269310  68.9299310
  64.3029310  52.7399310  69.4039310  56.5439310  37.3789310  51.4579310
  56.7719310  37.3509310  52.3869310  55.9149310  36.6669310  51.3449310
  56.4929310  37.2839310  51.5629310  53.9429310  51.5649310  51.7179310
  52.9889310  51.4969310  51.6859310  54.1319310  51.8719310  52.6039310
  53.8449310  51.5959310  51.8269310  58.7079310  49.0089310  44.8809310
  58.5339310  49.1699310  45.8089310  57.9429310  48.5229310  44.5749310
  58.5879310  48.9669310  44.9609310  54.4599310  35.6649310  50.9639310
  53.8999310  36.1129310  51.5979310  54.3139310  34.7339310  51.1309310
  54.3699310  35.6029310  51.0659310  58.6739310  39.1149310  50.8169310
  58.0709310  38.4739310  51.1919310  59.4629310  39.0459310  51.3549310
  58.6979310  39.0249310  50.9339310  59.2119310  35.5519310  57.0949310
  60.1039310  35.3229310  56.8309310  58.6899310  35.4309310  56.3019310
  59.2599310  35.5079310  56.9599310  65.4399310  50.0649310  38.3979310
  64.5779310  50.3929310  38.1419310  65.3439310  49.1129310  38.3969310
  65.3169310  49.9849310  38.3649310  52.1659310  50.1619310  45.1749310
  52.2039310  51.0549310  44.8309310  51.3669310  50.1409310  45.7009310
  52.0689310  50.2739310  45.1979310  56.8769310  51.9519310  41.8639310
  56.0779310  51.4249310  41.8739310  57.2209310  51.8489310  40.9769310
  56.8189310  51.8709310  41.7519310  61.0969310  38.9409310  52.0849310
  61.2749310  38.0589310  52.4109310  61.4159310  39.5209310  52.7769310
  61.1609310  38.9019310  52.2159310  60.7849310  46.9369310  44.3309310
  60.3589310  46.3299310  43.7269310  60.1219310  47.6039310  44.5089310
  60.6459310  46.9449310  44.2769310  66.5369310  37.5689310  43.5839310
  66.6049310  36.6219310  43.4599310  67.4059310  37.8339310  43.8849310
  66.6569310  37.4819310  43.6069310  67.6559310  41.8599310  45.4249310
  66.8769310  41.9699310  45.9699310  67.9999310  42.7459310  45.3159310
  67.5999310  41.9869310  45.4809310  58.7519310  37.9879310  39.5729310
  58.4859310  37.5249310  40.3679310  58.7679310  37.3109310  38.8969310
  58.7199310  37.8419310  39.5889310  58.9869310  45.1759310  52.8569310
  58.8589310  44.3109310  53.2459310  59.4299310  45.0009310  52.0259310
  59.0269310  45.0429310  52.7999310  61.8629310  46.1279310  39.8759310
  62.6329310  46.1489310  40.4429310  62.1819310  45.7609310  39.0519310
  62.0019310  46.0839310  39.8429310  67.5989310  45.7649310  41.6059310
  67.2329310  46.4059310  42.2159310  66.8339310  45.3429310  41.2139310
  67.4539310  45.7929310  41.6339310  65.5809310  47.3649310  38.6229310
  65.6229310  47.2309310  37.6759310  66.4669310  47.6319310  38.8659310
  65.6999310  47.3819310  38.5329310  50.9839310  45.8429310  54.0069310
  50.0629310  45.6229310  53.8669310  51.0639310  45.9499310  54.9539310
  50.8759310  45.8279310  54.1099310  65.9239310  37.7949310  40.7109310
  66.0559310  37.6509310  41.6479310  65.0559310  38.1939310  40.6509310
  65.8299310  37.8269310  40.8239310  62.5739310  49.5319310  45.2119310
  62.7499310  50.3819310  44.8089310  61.8149310  49.1949310  44.7379310
  62.4999310  49.5979310  45.0999310  62.3639310  52.8569310  46.4639310
  62.9499310  53.5939310  46.2889310  61.5819310  53.0429310  45.9449310
  62.3389310  52.9749310  46.3749310  54.6859310  40.1119310  44.9839310
  54.2789310  40.1109310  44.1169310  54.1999310  40.7749310  45.4749310
  54.5719310  40.1969310  44.9359310  52.8049310  36.5079310  53.0019310
  53.0119310  37.4059310  53.2589310  52.4489310  36.1069310  53.7949310
  52.7859310  36.5709310  53.1359310  61.1529310  40.9969310  54.0009310
  61.7389310  41.3099310  54.6899310  60.4269310  41.6219310  54.0009310
  61.1349310  41.1169310  54.0889310  58.7729310  41.4979310  43.5329310
  57.9479310  41.4799310  43.0479310  58.5219310  41.3119310  44.4379310
  58.6349310  41.4719310  43.5869310  55.8869310  51.1629310  48.1499310
  55.6259310  50.7879310  48.9909310  56.6179310  50.6179310  47.8609310
  55.9469310  51.0449310  48.2199310  54.1249310  49.3559310  46.8649310
  53.4009310  49.6589310  46.3169310  54.7189310  50.1059310  46.9129310
  54.1089310  49.4909310  46.8009310  50.6739310  39.5099310  57.0549310
  50.4759310  39.5909310  56.1229310  49.8799310  39.8129310  57.4959310
  50.5469310  39.5589310  56.9919310  53.5979310  43.1199310  38.2029310
  52.9949310  43.8569310  38.1069310  54.2269310  43.4099310  38.8639310
  53.6009310  43.2509310  38.2749310  58.0249310  51.5819310  39.4959310
  58.4839310  50.7599310  39.6679310  58.7229310  52.2219310  39.3569310
  58.1729310  51.5589310  39.4999310  56.7479310  42.0729310  48.4779310
  57.6289310  42.3649310  48.7099310  56.8339310  41.7389310  47.5849310
  56.8719310  42.0679310  48.3929310  50.6419310  48.5359310  55.8119310
  49.8799310  49.1039310  55.6949310  50.8469310  48.2259310  54.9299310
  50.5699310  48.5689310  55.6839310  52.7129310  49.8309310  57.1489310
  53.1959310  50.3919310  56.5419310  52.2699310  49.1949310  56.5879310
  52.7179310  49.8219310  56.9999310  56.3389310  51.5669310  55.9469310
  56.9129310  51.4799310  56.7079310  56.2969310  52.5089310  55.7849310
  56.4069310  51.6759310  56.0229310  61.0449310  37.8919310  46.6619310
  60.0929310  37.8289310  46.7329310  61.3729310  37.1639310  47.1899310
  60.9649310  37.7909310  46.7389310  66.1739310  45.8999310  48.7839310
  66.6139310  46.4069310  49.4669310  65.5019310  45.4029310  49.2499310
  66.1449310  45.9009310  48.9309310  67.3889310  47.6679310  51.0119310
  66.6749310  48.2729310  50.8129310  68.1049310  48.2309310  51.3089310
  67.3899310  47.8169310  51.0249310  56.6939310  45.4209310  55.8479310
  56.5369310  44.4769310  55.8119310  56.6049310  45.7129310  54.9409310
  56.6619310  45.3369310  55.7269310  60.9009310  48.7289310  39.9499310
  61.2049310  47.8359310  40.1059310  61.4279310  49.2689310  40.5389310
  61.0069310  48.6839310  40.0449310  63.5239310  39.2169310  40.5259310
  63.6279310  39.5609310  41.4129310  63.3939310  39.9929310  39.9809310
  63.5209310  39.3599310  40.5699310  66.1659310  40.0649310  47.8529310
  67.0779310  40.0759310  48.1459310  66.1659310  39.4799310  47.0949310
  66.2829310  39.9909310  47.7939310  64.0109310  44.4019310  49.7039310
  63.1359310  44.1449310  49.4139310  64.3629310  43.6189310  50.1279310
  63.9439310  44.2689310  49.7209310  53.7199310  51.3179310  54.8619310
  53.4679310  52.2219310  55.0529310  54.6249310  51.2529310  55.1649310
  53.8039310  51.4259310  54.9249310  52.0209310  35.4399310  55.4289310
  51.1879310  35.0129310  55.6299310  51.9879310  36.2669310  55.9089310
  51.9099310  35.4909310  55.5159310  58.3559310  40.9019310  46.1669310
  58.4419310  40.1179310  46.7099310  58.7959310  41.5889310  46.6669310
  58.4229310  40.8899310  46.2999310  67.0179310  38.5199310  55.5069310
  66.1189310  38.1919310  55.5019310  67.3429310  38.3429310  54.6249310
  66.9439310  38.4549310  55.3939310  67.0339310  49.6419310  41.5029310
  67.1549310  50.5169310  41.1349310  67.2429310  49.0479310  40.7819310
  67.0759310  49.6779310  41.3629310  65.4519310  35.0409310  40.3809310
  65.5799310  35.9559310  40.1289310  64.5029310  34.9459310  40.4659310
  65.3469310  35.1459310  40.3599310  51.4309310  53.1239310  42.6859310
  50.6499310  52.9929310  42.1479310  51.4009310  54.0489310  42.9299310
  51.3269310  53.2259310  42.6479310  61.4819310  48.9259310  54.6369310
  62.0639310  48.7619310  55.3779310  60.8889310  49.6119310  54.9449310
  61.4799310  48.9929310  54.7709310  57.7839310  49.3899310  47.3759310
  57.3039310  48.5819310  47.5529310  58.5139310  49.3759310  47.9949310
  57.8159310  49.2849310  47.4779310  68.6269310  36.3789310  38.3819310
  68.4509310  37.2199310  37.9609310  67.8179310  35.8799310  38.2679310
  68.5009310  36.4229310  38.3139310  71.1959310  42.3069310  45.7599310
  71.2099310  41.9939310  46.6649310  71.1469310  43.2599310  45.8369310
  71.1919310  42.3889310  45.8859310  60.5889310  40.2429310  39.6429310
  59.9629310  39.5189310  39.6669310  60.8069310  40.4019310  40.5609310
  60.5369310  40.1709310  39.7629310  57.3269310  41.8909310  51.7629310
  56.4819310  41.5709310  52.0799310  57.7999310  41.0999310  51.5039310
  57.2789310  41.7489310  51.7709310  54.2539310  47.0769310  56.0969310
  55.0649310  46.5889310  55.9549310  53.9849310  47.3539310  55.2209310
  54.3229310  47.0499310  55.9659310  53.1619310  51.6489310  41.2199310
  52.5799310  52.1469310  41.7929310  53.3909310  52.2599310  40.5199310
  53.1169310  51.7909310  41.2039310  67.0549310  37.7579310  52.9379310
  66.1889310  37.5939310  52.5669310  67.6369310  37.1659310  52.4599310
  67.0189310  37.6609310  52.8289310  66.7609310  43.2079310  39.6439310
  66.3039310  42.9669310  40.4499310  67.6869310  43.0679310  39.8429310
  66.8209310  43.1589310  39.7729310  56.5159310  46.1169310  53.1249310
  57.3959310  45.7439310  53.0729310  55.9779310  45.5359310  52.5879310
  56.5599310  45.9949310  53.0499310  65.5049310  49.8279310  51.4819310
  65.1539310  49.7249310  52.3669310  65.6529310  50.7699310  51.3919310
  65.4789310  49.9349310  51.5839310  67.6419310  51.5949310  53.3609310
  67.8399310  51.1999310  54.2109310  66.9709310  52.2499310  53.5519310
  67.5809310  51.6279310  53.4939310  64.8859310  38.9249310  45.2319310
  65.5819310  38.5389310  44.6989310  64.2759310  38.2029310  45.3869310
  64.8969310  38.7829310  45.1829310  62.9599310  44.3739310  52.7739310
  62.4029310  43.9799310  52.1019310  62.3839310  44.9839310  53.2339310
  62.8149310  44.4019310  52.7469310  66.8739310  43.6349310  55.9679310
  66.0509310  43.9749310  55.6189310  66.7299310  43.5789310  56.9129310
  66.7509310  43.6709310  56.0439310  60.7869310  40.3609310  42.3069310
  59.9639310  40.6439310  42.7029310  61.4649310  40.7469310  42.8619310
  60.7689310  40.4459310  42.4289310  53.7989310  43.9519310  50.3999310
  53.4219310  43.8249310  51.2699310  53.2359310  43.4409310  49.8179310
  53.6789310  43.8709310  50.4369310  62.8059310  45.4619310  45.8549310
  63.3509310  45.9629310  46.4619310  62.1119310  46.0689310  45.5979310
  62.7869310  45.6029310  45.8999310  50.7889310  47.0279310  46.6759310
  51.1829310  46.9579310  45.8059310  51.4009310  46.5729310  47.2529310
  50.9179310  46.9609310  46.6379310  65.5099310  42.7079310  42.0479310
  65.4669310  43.3269310  42.7779310  65.1439310  41.8969310  42.3999310
  65.4579310  42.6839310  42.1869310  60.2599310  43.5719310  42.5269310
  59.5879310  42.8909310  42.5569310  60.3389310  43.7889310  41.5979310
  60.1839310  43.5129310  42.4119310  53.9469310  38.4249310  56.4899310
  53.7939310  38.7049310  55.5879310  53.7099310  39.1849310  57.0209310
  53.8969310  38.5579310  56.4429310  61.4459310  52.5509310  51.6449310
  60.8969310  52.4819310  50.8649310  61.8099310  51.6739310  51.7609310
  61.4229310  52.4299310  51.5599310  55.8799310  42.5459310  55.5959310
  55.7649310  42.2619310  54.6889310  54.9889310  42.6489310  55.9289310
  55.7509310  42.5229310  55.5219310  54.9249310  40.8729310  50.4419310
  54.3349310  40.1339310  50.2899310  55.5369310  40.8449310  49.7069310
  54.9279310  40.7749310  50.3279310  56.3099310  47.0649310  48.4739310
  56.2699310  46.1099310  48.4369310  55.8549310  47.2929310  49.2839310
  56.2469310  46.9719310  48.5729310  64.2749310  43.7179310  55.1559310
  63.5839310  43.0779310  55.3239310  64.0669310  44.0739310  54.2929310
  64.1599310  43.6809310  55.0669310  52.2259310  47.2649310  44.4949310
  52.9049310  46.9849310  45.1089310  52.3239310  48.2149310  44.4459310
  52.3249310  47.3509310  44.5679310  57.6399310  46.0009310  39.5819310
  57.2569310  45.6919310  38.7609310  57.8789310  46.9119310  39.4069310
  57.6219310  46.0779310  39.4549310  51.8959310  37.4559310  45.2599310
  51.6579310  36.6369310  44.8259310  51.1349310  38.0239310  45.1329310
  51.7679310  37.4239310  45.1879310  61.6989310  38.0199310  43.8019310
  61.4049310  38.7349310  43.2379310  61.4279310  38.2809310  44.6819310
  61.6269310  38.1449310  43.8419310  60.1529310  49.6759310  48.8839310
  60.0889310  49.1559310  49.6859310  60.6979310  50.4249310  49.1269310
  60.2139310  49.7049310  49.0179310  65.6519310  48.5719310  45.5029310
  64.7369310  48.5819310  45.2199310  65.7739310  47.7039310  45.8879310
  65.5499310  48.4619310  45.5159310  55.2739310  44.8889310  42.5869310
  56.0969310  45.3749310  42.5489310  55.3249310  44.3939310  43.4039310
  55.3859310  44.8879310  42.6859310  51.9649310  52.7639310  46.6629310
  51.4229310  53.1869310  47.3299310  52.8639310  52.9609310  46.9249310
  52.0099310  52.8439310  46.7819310  57.5689310  46.5259310  42.5889310
  57.0459310  47.2289310  42.9749310  57.5809310  46.7219310  41.6529310
  57.5039310  46.6409310  42.5189310  64.6119310  41.3929310  38.7529310
  65.0899310  41.0399310  38.0039310  65.1139310  42.1649310  39.0159310
  64.7369310  41.4469310  38.6909310  53.5059310  46.8289310  53.5829310
  53.4679310  47.1459310  52.6809310  52.6339310  46.4699310  53.7479310
  53.3889310  46.8229310  53.4889310  57.4139310  48.5689310  52.1579310
  56.6309310  48.9749310  51.7889310  57.1259310  47.6979310  52.4309310
  57.2769310  48.5089310  52.1459310  51.1519310  50.5809310  48.9009310
  51.8069310  50.9419310  48.3039310  50.4739310  50.2259310  48.3259310
  51.1489310  50.5819310  48.7509310  66.4639310  32.4729310  48.1519310
  66.6099310  32.8779310  49.0069310  65.5189310  32.5409310  48.0129310
  66.3619310  32.5329310  48.2439310  56.4399310  44.5259310  50.6369310
  56.7649310  43.7229310  51.0439310  55.5709310  44.2939310  50.3109310
  56.3699310  44.3939310  50.6469310  52.0559310  45.4599310  56.6059310
  52.8589310  45.9699310  56.4959310  51.6059310  45.8779310  57.3399310
  52.1009310  45.5789310  56.6859310  62.5519310  42.6079310  45.8659310
  63.0499310  42.4009310  45.0749310  62.7359310  43.5329310  46.0299310
  62.6389310  42.6999310  45.7859310  57.1769310  41.3539310  39.6069310
  56.6959310  40.5369310  39.4759310  57.6109310  41.5129310  38.7689310
  57.1709310  41.2699310  39.4829310  51.1409310  46.3909310  40.0649310
  51.9079310  46.0679310  40.5399310  50.3989310  46.1519310  40.6199310
  51.1439310  46.3189310  40.1969310  67.2399310  53.3799310  47.9339310
  67.0929310  52.4369310  48.0149310  67.8939310  53.5779310  48.6049310
  67.3049310  53.2839310  48.0299310  68.5729310  49.6579310  46.7199310
  67.7289310  50.0709310  46.9039310  68.4409310  48.7359310  46.9379310
  68.4479310  49.5929310  46.7709310  59.8729310  43.2039310  46.4889310
  59.4659310  43.9639310  46.0729310  60.7349310  43.1389310  46.0789310
  59.9309310  43.2929310  46.3829310  64.4099310  44.4429310  43.9709310
  65.0839310  44.8549310  44.5109310  63.5999310  44.8889310  44.2169310
  64.3929310  44.5529310  44.0709310  52.5639310  44.9339310  47.4739310
  53.5209310  44.9179310  47.4549310  52.3189310  44.1199310  47.9139310
  52.6549310  44.8279310  47.5279310  62.8669310  38.9439310  50.0129310
  62.4129310  39.3859310  49.2949310  62.3249310  39.1189310  50.7819310
  62.7399310  39.0229310  50.0189310  68.0319310  43.8719310  48.9569310
  67.6429310  43.3979310  49.6929310  67.4969310  44.6609310  48.8709310
  67.9139310  43.9119310  49.0399310  61.4059310  40.4199310  47.8229310
  62.0319310  40.8699310  47.2559310  61.2639310  39.5729310  47.3989310
  61.4679310  40.3689310  47.6959310  59.9409310  48.2969310  51.3219310
  60.3339310  49.1179310  51.6179310  59.0279310  48.3519310  51.6039310
  59.8749310  48.4089310  51.3959310  61.4299310  37.1649310  40.5789310
  60.6709310  37.4129310  40.0509310  61.9849310  37.9449310  40.5799310
  61.4039310  37.2969310  40.5119310  63.5519310  36.3489310  45.0919310
  62.8899310  36.7549310  44.5319310  64.2469310  36.0859310  44.4889310
  63.5559310  36.3679310  44.9429310  65.1649310  41.5809310  50.4709310
  64.8999310  40.9289310  51.1209310  65.3839310  41.0679310  49.6929310
  65.1589310  41.4319310  50.4549310  55.9109310  43.3739310  44.6959310
  56.0989310  42.6219310  44.1339310  56.7669310  43.7649310  44.8659310
  56.0439310  43.3279310  44.6459310  57.5669310  38.2339310  53.9359310
  58.4889310  38.3099310  54.1799310  57.1149310  38.8509310  54.5109310
  57.6269310  38.3219310  54.0399310  54.5579310  35.2439310  46.8549310
  54.7289310  36.1649310  47.0539310  55.1239310  34.7599310  47.4559310
  54.6519310  35.2999310  46.9569310  58.3609310  48.5809310  38.9789310
  59.2049310  48.5429310  39.4299310  58.5839310  48.7859310  38.0709310
  58.4979310  48.6019310  38.9209310  55.4119310  44.3709310  47.2479310
  55.6689310  43.9529310  46.4259310  55.4959310  43.6789310  47.9039310
  55.4559310  44.2289310  47.2269310  62.7239310  48.8259310  47.7069310
  62.8219310  49.0729310  46.7869310  61.8699310  49.1759310  47.9589310
  62.6269310  48.9019310  47.6219310  60.1139310  53.2399310  45.0459310
  59.9289310  52.4129310  44.5999310  59.8019310  53.9129310  44.4409310
  60.0499310  53.2199310  44.9109310  66.2179310  35.1099310  56.6709310
  65.6769310  34.5949310  57.2689310  65.7539310  35.9429310  56.5839310
  66.0899310  35.1509310  56.7369310  61.7019310  52.4749310  38.1359310
  61.8599310  53.3139310  37.7029310  61.9639310  52.6219310  39.0449310
  61.7559310  52.6009310  38.1969310  63.8119310  51.2519310  48.2459310
  63.2679310  51.8519310  47.7349310  63.4209310  50.3909310  48.0999310
  63.6929310  51.2189310  48.1619310  67.5869310  42.6609310  51.8689310
  66.6909310  42.3359310  51.7819310  67.4869310  43.5559310  52.1939310
  67.4589310  42.7339310  51.8999310  57.9039310  53.6199310  47.2189310
  57.8699310  52.9329310  47.8839310  58.3799310  53.2249310  46.4889310
  57.9599310  53.4819310  47.2109310  59.7829310  44.3479310  39.9069310
  60.5129310  44.9679310  39.8959310  59.0009310  44.8989310  39.8759310
  59.7759310  44.4979310  39.9009310  59.4149310  41.7289310  49.0229310
  58.9659310  40.9749310  49.4049310  60.1369310  41.3489310  48.5229310
  59.4499310  41.5839310  49.0079310  60.9499310  45.8529310  50.7349310
  60.6739310  46.6769310  51.1369310  61.9009310  45.8399310  50.8439310
  61.0369310  45.9569310  50.7999310  56.4379310  38.4659310  43.0059310
  56.2899310  39.4089310  42.9279310  55.6459310  38.1339310  43.4299310
  56.3179310  38.5439310  43.0499310  60.3059310  53.0759310  48.9839310
  61.0959310  53.6139310  48.9299310  59.7059310  53.4679310  48.3499310
  60.3299310  53.1949310  48.8959310  60.0889310  38.8099310  55.4249310
  59.6229310  39.4079310  56.0089310  60.6839310  39.3739310  54.9299310
  60.1049310  38.9579310  55.4359310  52.3359310  43.7009310  52.8719310
  51.6569310  44.3399310  53.0919310  51.9269310  42.8519310  53.0349310
  52.1959310  43.6739310  52.9209310  63.2959310  51.7059310  43.8359310
  62.9279310  52.2869310  44.5009310  64.1869310  52.0289310  43.7019310
  63.3629310  51.8219310  43.9039310  61.4009310  44.1429310  48.8209310
  61.1329310  44.7859310  49.4779310  60.6019310  43.9609310  48.3249310
  61.2639310  44.2019310  48.8409310  49.9429310  41.7809310  55.4409310
  49.3429310  42.5139310  55.5819310  50.4899310  41.7639310  56.2269310
  49.9359310  41.8729310  55.5599310  61.3779310  42.4769310  51.3829310
  61.2149310  42.7859310  50.4919310  60.5169310  42.2129310  51.7059310
  61.2469310  42.4829310  51.3109310  61.5999310  36.6979310  55.5209310
  61.5969310  36.4079310  54.6089310  60.9279310  37.3789310  55.5579310
  61.5129310  36.7479310  55.4089310  54.1749310  47.3969310  39.8129310
  54.2609310  47.3459310  38.8609310  53.6219310  48.1649310  39.9619310
  54.1149310  47.4889310  39.7099310  61.3099310  46.1399310  53.9189310
  60.4919310  45.9839310  53.4479310  61.3579310  47.0919310  54.0079310
  61.2119310  46.2419310  53.8699310  65.6599310  40.8359310  55.1499310
  66.3729310  40.2039310  55.2449310  66.0999310  41.6729310  55.0039310
  65.8069310  40.8619310  55.1429310  51.6889310  42.6179310  48.6719310
  50.9099310  43.1239310  48.9029310  51.4269310  41.7049310  48.7949310
  51.5559310  42.5659310  48.7169310  67.1329310  52.1129310  50.7189310
  67.4149310  52.0169310  51.6289310  66.3519310  52.6639310  50.7679310
  67.0689310  52.1709310  50.8419310  54.7849310  46.7749310  45.7779310
  54.6979310  47.5549310  46.3269310  54.8569310  46.0509310  46.4009310
  54.7829310  46.7819310  45.9279310  54.8869310  41.9159310  52.9619310
  54.7959310  41.7959310  52.0169310  54.1629310  42.4939310  53.1999310
  54.7829310  41.9749310  52.8709310  55.9689310  35.4319310  44.4139310
  55.5639310  35.1009310  45.2159310  56.0759310  34.6579310  43.8619310
  55.9309310  35.2909310  44.4459310  67.0539310  50.8909310  44.1539310
  67.1239310  50.2619310  44.8709310  67.1199310  50.3589310  43.3609310
  67.0709310  50.7429310  44.1439310  56.5119310  41.4779310  42.2999310
  56.8849310  41.4129310  41.4209310  55.6069310  41.1819310  42.1989310
  56.4439310  41.4309310  42.1749310  56.2109310  48.6349310  40.7339310
  55.4789310  48.1459310  40.3579310  56.8709310  48.6479310  40.0419310
  56.2009310  48.5739310  40.5979310  58.6569310  38.3749310  44.6849310
  57.8049310  38.2369310  44.2729310  58.7069310  39.3219310  44.8209310
  58.5549310  38.4789310  44.6499310  51.1569310  51.9799310  51.3049310
  50.8639310  51.7069310  50.4349310  50.8489310  52.8819310  51.3889310
  51.0799310  52.0599310  51.2039310  53.5289310  39.0429310  53.8759310
  54.3199310  39.0759310  53.3389310  53.1689310  39.9289310  53.8279310
  53.5839310  39.1599310  53.8009310  59.7019310  42.0459310  37.9239310
  59.6829310  42.6959310  38.6259310  60.0569310  41.2579310  38.3359310
  59.7449310  42.0289310  38.0659310  64.6849310  37.2959310  55.3449310
  64.7459310  36.9489310  54.4549310  63.7449310  37.3439310  55.5189310
  64.5719310  37.2579310  55.2529310  55.0719310  49.3439310  50.7029310
  54.5019310  50.0309310  51.0499310  54.6199310  48.5279310  50.9169310
  54.9409310  49.3279310  50.7749310  61.6639310  50.9249310  41.7939310
  60.9789310  50.8529310  42.4589310  62.4619310  51.1029310  42.2909310
  61.6779310  50.9379310  41.9429310  59.3749310  36.5489310  42.7759310
  59.1499310  37.3339310  43.2749310  60.2739310  36.7009310  42.4839310
  59.4619310  36.6689310  42.8029310  64.8019310  36.2689310  47.6459310
  65.6729310  35.8759310  47.7029310  64.7029310  36.4999310  46.7229310
  64.9009310  36.2479310  47.5349310  61.7099310  36.5359310  52.7799310
  61.4499310  35.7599310  52.2829310  62.6659310  36.5409310  52.7319310
  61.7989310  36.4369310  52.7099310  64.8269310  40.1339310  42.8939310
  64.6059310  39.8839310  43.7919310  65.6429310  39.6679310  42.7109310
  64.9029310  40.0419310  42.9859310  62.6729310  49.8969310  38.0409310
  62.2729310  50.7649310  38.0909310  62.1969310  49.3759310  38.6879310
  62.5609310  49.9419310  38.1299310  58.6299310  38.6839310  48.0609310
  57.7789310  38.2529310  47.9739310  58.7289310  38.8309310  49.0019310
  58.5329310  38.6479310  48.1699310  57.2609310  35.7049310  55.2119310
  56.7079310  36.0159310  55.9279310  57.3219310  36.4509310  54.6149310
  57.1979310  35.8399310  55.2269310  56.0519310  48.2179310  43.8969310
  55.4159310  47.7629310  44.4479310  55.5639310  48.9519310  43.5239310
  55.9089310  48.2539310  43.9199310  61.9299310  49.8889310  52.1019310
  61.7269310  49.5789310  52.9839310  62.4439310  49.1809310  51.7119310
  61.9699310  49.7579310  52.1649310  67.5179310  40.1579310  40.7299310
  66.6949310  39.6709310  40.6819310  67.2659310  41.0219310  41.0579310
  67.3809310  40.2059310  40.7659310  64.5749310  47.4909310  54.7489310
  63.9349310  46.9579310  55.2209310  64.5369310  47.1679310  53.8479310
  64.4879310  47.3809310  54.6939310  58.3419310  49.8589310  54.8839310
  57.9549310  49.4939310  54.0879310  57.6939310  50.4879310  55.1989310
  58.2089310  49.8919310  54.8229310  50.7019310  49.2129310  52.2529310
  50.3199310  50.0559310  52.4969310  51.5259310  49.4389310  51.8219310
  50.7579310  49.3499310  52.2289310  52.6049310  38.8389310  47.6749310
  52.5109310  38.3719310  46.8449310  53.4279310  38.5159310  48.0399310
  52.6979310  38.7379310  47.6159310  67.2419310  45.3279310  52.5659310
  66.3509310  45.5439310  52.8439310  67.5189310  46.0809310  52.0439310
  67.1629310  45.4519310  52.5349310  66.3099310  47.3499310  42.9979310
  66.3319310  47.4659310  43.9479310  66.4829310  48.2229310  42.6469310
  66.3349310  47.4769310  43.0749310  65.6849310  53.2899310  43.3049310
  65.4209310  53.2549310  42.3859310  66.3069310  52.5689310  43.4039310
  65.7309310  53.1929310  43.1999310  62.8589310  53.2859310  40.8159310
  62.3429310  52.6009310  41.2419310  62.3759310  54.0929310  40.9899310
  62.7309310  53.3009310  40.8929310  54.7679310  38.0969310  48.9309310
  55.2199310  37.5179310  49.5449310  55.3309310  38.1119310  48.1579310
  54.8979310  38.0249310  48.9109310  51.3499310  41.1969310  53.1999310
  50.7839310  41.5579310  52.5179310  50.8539310  41.3129310  54.0099310
  51.2139310  41.2579310  53.2159310  62.5959310  54.8289310  49.1169310
  63.3709310  54.6729310  48.5779310  62.5649310  55.7799310  49.2229310
  62.6909310  54.9309310  49.0619310  59.1659310  51.2409310  43.3459310
  58.9279310  50.4279310  43.7899310  58.3609310  51.5189310  42.9089310
  59.0329310  51.1729310  43.3469310  64.3589310  50.6609310  54.6529310
  64.6289310  49.7569310  54.8129310  63.4069310  50.6479310  54.7539310
  64.2719310  50.5439310  54.6869310  64.6689310  46.3669310  52.3499310
  64.0589310  45.6309310  52.4059310  64.2369310  46.9909310  51.7669310
  64.5359310  46.3519310  52.2829310  53.7669310  46.9549310  50.7749310
  53.3059310  47.2989310  50.0099310  53.8479310  46.0169310  50.6029310
  53.7179310  46.8789310  50.6549310  51.9629310  44.5959310  42.9599310
  52.9189310  44.6279310  42.9869310  51.6919310  45.5129310  42.9979310
  52.0509310  44.7169310  42.9679310  56.8029310  40.0549310  55.9029310
  56.0379310  39.6579310  56.3209310  56.5489310  40.9659310  55.7549310
  56.6719310  40.1209310  55.9379310  62.6309310  42.1469310  43.3149310
  63.2509310  42.5909310  42.7359310  61.8209310  42.6509310  43.2299310
  62.6069310  42.2689310  43.2299310  49.2509310  48.1989310  39.2759310
  49.8789310  47.6759310  39.7749310  49.7449310  48.5049310  38.5149310
  49.3949310  48.1709310  39.2429310  54.9229310  50.2829310  42.5469310
  54.2229310  50.6809310  42.0299310  55.3549310  49.6799310  41.9409310
  54.8889310  50.2569310  42.4029310  63.5239310  48.2259310  50.3689310
  63.3509310  48.1489310  49.4309310  64.3069310  48.7729310  50.4239310
  63.6019310  48.2859310  50.2559310  58.3419310  44.6099310  44.6879310
  58.8559310  44.0099310  44.1479310  58.0679310  45.2999310  44.0839310
  58.3719310  44.6209310  44.5419310  65.3699310  53.1769310  53.9789310
  65.7789310  53.3489310  54.8269310  65.1009310  52.2599310  54.0239310
  65.3879310  53.0819310  54.0929310  64.3839310  37.8389310  52.2469310
  64.0969310  38.6649310  52.6379310  64.1609310  37.9229310  51.3199310
  64.3179310  37.9559310  52.1789310  68.0369310  52.4689310  40.9769310
  68.6239310  52.2919310  40.2419310  67.4459310  53.1489310  40.6529310
  68.0359310  52.5329310  40.8409310  50.8289310  51.9649310  38.7339310
  51.3859310  51.2059310  38.9059310  51.3969310  52.7189310  38.8899310
  50.9729310  51.9639310  38.7759310  67.8769310  50.8239310  55.9719310
  67.1049310  50.8549310  56.5359310  68.4939310  51.4339310  56.3779310
  67.8569310  50.9059310  56.0969310  68.3989310  39.1749310  44.7329310
  68.9809310  39.6599310  44.1469310  67.8329310  39.8449310  45.1159310
  68.4009310  39.3229310  44.7069310  62.7779310  45.9509310  56.0409310
  61.9669310  45.9889310  55.5339310  63.1419310  45.0879310  55.8459310
  62.7209310  45.8459310  55.9509310  56.1179310  37.9939310  46.5989310
  55.9399310  38.5839310  45.8669310  56.6029310  37.2669310  46.2089310
  56.1569310  37.9769310  46.4559310  49.7229310  44.5839310  45.1759310
  50.3199310  44.8399310  44.4719310  50.0259310  45.0789310  45.9379310
  49.8379310  44.6799310  45.1829310  52.4039310  48.0909310  48.9809310
  52.6629310  48.7839310  48.3729310  51.5319310  48.3499310  49.2799310
  52.3259310  48.2129310  48.9409310  66.0919310  45.6809310  45.9619310
  66.9449310  45.3399310  45.6919310  66.1139310  45.6519310  46.9179310
  66.2039310  45.6329310  46.0489310  59.0219310  42.5919310  53.8669310
  58.2679310  42.2619310  53.3779310  58.8209310  42.3939310  54.7809310
  58.8999310  42.5239310  53.9209310  62.5719310  41.9149310  55.9359310
  61.7879310  41.8759310  56.4839310  63.2089310  41.3639310  56.3899310
  62.5529310  41.8399310  56.0639310  68.1679310  35.7069310  45.4699310
  67.5719310  35.3569310  46.1319310  68.8859310  35.0749310  45.4349310
  68.1839310  35.5819310  45.5499310  64.2379310  46.3519310  41.1769310
  64.6339310  46.6929310  41.9789310  64.7289310  46.7709310  40.4699310
  64.3509310  46.4489310  41.1889310  63.9669310  40.4379310  53.1389310
  64.6599310  40.6319310  53.7709310  63.3309310  41.1439310  53.2569310
  63.9739310  40.5529310  53.2349310  64.4319310  52.7079310  50.6139310
  63.9589310  53.5409310  50.6069310  63.9009310  52.1269310  50.0699310
  64.3029310  52.7399310  50.5439310  53.9429310  51.5649310  32.8579310
  52.9889310  51.4969310  32.8259310  54.1319310  51.8719310  33.7439310
  53.8449310  51.5959310  32.9669310  59.2119310  35.5519310  38.2349310
  60.1039310  35.3229310  37.9709310  58.6899310  35.4309310  37.4419310
  59.2599310  35.5079310  38.0999310  52.1659310  50.1619310  26.3149310
  52.2039310  51.0549310  25.9709310  51.3669310  50.1409310  26.8409310
  52.0689310  50.2739310  26.3379310  67.5989310  45.7649310  22.7459310
  67.2329310  46.4059310  23.3559310  66.8339310  45.3429310  22.3539310
  67.4539310  45.7929310  22.7739310  62.5739310  49.5319310  26.3519310
  62.7499310  50.3819310  25.9489310  61.8149310  49.1949310  25.8779310
  62.4999310  49.5979310  26.2399310  62.3639310  52.8569310  27.6039310
  62.9499310  53.5939310  27.4289310  61.5819310  53.0429310  27.0849310
  62.3389310  52.9749310  27.5149310  55.8869310  51.1629310  29.2899310
  55.6259310  50.7879310  30.1309310  56.6179310  50.6179310  29.0009310
  55.9469310  51.0449310  29.3599310  54.1249310  49.3559310  28.0049310
  53.4009310  49.6589310  27.4569310  54.7189310  50.1059310  28.0529310
  54.1089310  49.4909310  27.9409310  56.3389310  51.5669310  37.0869310
  56.9129310  51.4799310  37.8479310  56.2969310  52.5089310  36.9249310
  56.4069310  51.6759310  37.1629310  61.0449310  37.8919310  27.8019310
  60.0929310  37.8289310  27.8729310  61.3729310  37.1639310  28.3299310
  60.9649310  37.7909310  27.8789310  67.3889310  47.6679310  32.1519310
  66.6749310  48.2729310  31.9529310  68.1049310  48.2309310  32.4489310
  67.3899310  47.8169310  32.1649310  67.0179310  38.5199310  36.6469310
  66.1189310  38.1919310  36.6419310  67.3429310  38.3429310  35.7649310
  66.9439310  38.4549310  36.5339310  67.0339310  49.6419310  22.6429310
  67.1549310  50.5169310  22.2749310  67.2429310  49.0479310  21.9219310
  67.0759310  49.6779310  22.5029310  65.4519310  35.0409310  21.5209310
  65.5799310  35.9559310  21.2689310  64.5029310  34.9459310  21.6059310
  65.3469310  35.1459310  21.4999310  51.4309310  53.1239310  23.8259310
  50.6499310  52.9929310  23.2879310  51.4009310  54.0489310  24.0699310
  51.3269310  53.2259310  23.7879310  61.4819310  48.9259310  35.7769310
  62.0639310  48.7619310  36.5179310  60.8889310  49.6119310  36.0849310
  61.4799310  48.9929310  35.9109310  71.1959310  42.3069310  26.8999310
  71.2099310  41.9939310  27.8049310  71.1469310  43.2599310  26.9769310
  71.1919310  42.3889310  27.0259310  53.1619310  51.6489310  22.3599310
  52.5799310  52.1469310  22.9329310  53.3909310  52.2599310  21.6599310
  53.1169310  51.7909310  22.3439310  67.0549310  37.7579310  34.0779310
  66.1889310  37.5939310  33.7069310  67.6369310  37.1659310  33.5999310
  67.0189310  37.6609310  33.9689310  65.5049310  49.8279310  32.6219310
  65.1539310  49.7249310  33.5069310  65.6529310  50.7699310  32.5319310
  65.4789310  49.9349310  32.7239310  67.6419310  51.5949310  34.5009310
  67.8399310  51.1999310  35.3509310  66.9709310  52.2499310  34.6919310
  67.5809310  51.6279310  34.6339310  66.8739310  43.6349310  37.1079310
  66.0509310  43.9749310  36.7589310  66.7299310  43.5789310  38.0529310
  66.7509310  43.6709310  37.1839310  61.4459310  52.5509310  32.7849310
  60.8969310  52.4819310  32.0049310  61.8099310  51.6739310  32.9009310
  61.4229310  52.4299310  32.6999310  64.2749310  43.7179310  36.2959310
  63.5839310  43.0779310  36.4639310  64.0669310  44.0739310  35.4329310
  64.1599310  43.6809310  36.2069310  49.8929310  42.8199310  23.4329310
  50.5579310  43.4199310  23.7709310  49.0609310  43.2539310  23.6219310
  49.8719310  42.9519310  23.5009310  52.2259310  47.2649310  25.6349310
  52.9049310  46.9849310  26.2489310  52.3239310  48.2149310  25.5859310
  52.3249310  47.3509310  25.7079310  60.1529310  49.6759310  30.0239310
  60.0889310  49.1559310  30.8259310  60.6979310  50.4249310  30.2669310
  60.2139310  49.7049310  30.1579310  65.6519310  48.5719310  26.6429310
  64.7369310  48.5819310  26.3599310  65.7739310  47.7039310  27.0279310
  65.5499310  48.4619310  26.6559310  51.9649310  52.7639310  27.8029310
  51.4229310  53.1869310  28.4699310  52.8639310  52.9609310  28.0649310
  52.0099310  52.8439310  27.9219310  51.1519310  50.5809310  30.0409310
  51.8069310  50.9419310  29.4439310  50.4739310  50.2259310  29.4659310
  51.1489310  50.5819310  29.8909310  66.4639310  32.4729310  29.2919310
  66.6099310  32.8779310  30.1469310  65.5189310  32.5409310  29.1529310
  66.3619310  32.5329310  29.3839310  67.2399310  53.3799310  29.0739310
  67.0929310  52.4369310  29.1549310  67.8939310  53.5779310  29.7449310
  67.3049310  53.2839310  29.1699310  68.5729310  49.6579310  27.8599310
  67.7289310  50.0709310  28.0439310  68.4409310  48.7359310  28.0779310
  68.4479310  49.5929310  27.9109310  68.0319310  43.8719310  30.0969310
  67.6429310  43.3979310  30.8329310  67.4969310  44.6609310  30.0109310
  67.9139310  43.9119310  30.1799310  61.4299310  37.1649310  21.7189310
  60.6709310  37.4129310  21.1909310  61.9849310  37.9449310  21.7199310
  61.4039310  37.2969310  21.6519310  63.5519310  36.3489310  26.2319310
  62.8899310  36.7549310  25.6719310  64.2469310  36.0859310  25.6289310
  63.5559310  36.3679310  26.0829310  62.7239310  48.8259310  28.8469310
  62.8219310  49.0729310  27.9269310  61.8699310  49.1759310  29.0989310
  62.6269310  48.9019310  28.7619310  60.1139310  53.2399310  26.1859310
  59.9289310  52.4129310  25.7399310  59.8019310  53.9129310  25.5809310
  60.0499310  53.2199310  26.0509310  66.2179310  35.1099310  37.8109310
  65.6769310  34.5949310  38.4089310  65.7539310  35.9429310  37.7239310
  66.0899310  35.1509310  37.8769310  63.8119310  51.2519310  29.3859310
  63.2679310  51.8519310  28.8749310  63.4209310  50.3909310  29.2399310
  63.6929310  51.2189310  29.3019310  67.5869310  42.6609310  33.0089310
  66.6909310  42.3359310  32.9219310  67.4869310  43.5559310  33.3339310
  67.4589310  42.7339310  33.0399310  57.9039310  53.6199310  28.3589310
  57.8699310  52.9329310  29.0239310  58.3799310  53.2249310  27.6289310
  57.9599310  53.4819310  28.3509310  60.3059310  53.0759310  30.1239310
  61.0959310  53.6139310  30.0699310  59.7059310  53.4679310  29.4899310
  60.3299310  53.1949310  30.0359310  60.0889310  38.8099310  36.5649310
  59.6229310  39.4079310  37.1489310  60.6839310  39.3739310  36.0699310
  60.1049310  38.9579310  36.5759310  63.2959310  51.7059310  24.9759310
  62.9279310  52.2869310  25.6409310  64.1869310  52.0289310  24.8419310
  63.3629310  51.8219310  25.0439310  61.5999310  36.6979310  36.6609310
  61.5969310  36.4079310  35.7489310  60.9279310  37.3789310  36.6979310
  61.5129310  36.7479310  36.5489310  65.6599310  40.8359310  36.2899310
  66.3729310  40.2039310  36.3849310  66.0999310  41.6729310  36.1439310
  65.8069310  40.8619310  36.2829310  67.1329310  52.1129310  31.8589310
  67.4149310  52.0169310  32.7689310  66.3519310  52.6639310  31.9079310
  67.0689310  52.1709310  31.9819310  50.4159310  37.8589310  22.1229310
  50.3589310  37.6049310  21.2019310  49.8679310  38.6409310  22.1909310
  50.3389310  37.9269310  22.0139310  67.0539310  50.8909310  25.2939310
  67.1239310  50.2619310  26.0109310  67.1199310  50.3589310  24.5009310
  67.0709310  50.7429310  25.2839310  64.6849310  37.2959310  36.4849310
  64.7459310  36.9489310  35.5949310  63.7449310  37.3439310  36.6589310
  64.5719310  37.2579310  36.3929310  55.0719310  49.3439310  31.8429310
  54.5019310  50.0309310  32.1899310  54.6199310  48.5279310  32.0569310
  54.9409310  49.3279310  31.9149310  64.8019310  36.2689310  28.7859310
  65.6729310  35.8759310  28.8429310  64.7029310  36.4999310  27.8629310
  64.9009310  36.2479310  28.6749310  61.7099310  36.5359310  33.9199310
  61.4499310  35.7599310  33.4229310  62.6659310  36.5409310  33.8719310
  61.7989310  36.4369310  33.8499310  61.9299310  49.8889310  33.2419310
  61.7269310  49.5789310  34.1239310  62.4439310  49.1809310  32.8519310
  61.9699310  49.7579310  33.3049310  64.5749310  47.4909310  35.8889310
  63.9349310  46.9579310  36.3609310  64.5369310  47.1679310  34.9879310
  64.4879310  47.3809310  35.8339310  58.3419310  49.8589310  36.0239310
  57.9549310  49.4939310  35.2279310  57.6939310  50.4879310  36.3389310
  58.2089310  49.8919310  35.9629310  67.2419310  45.3279310  33.7059310
  66.3509310  45.5439310  33.9839310  67.5189310  46.0809310  33.1839310
  67.1629310  45.4519310  33.6749310  65.6849310  53.2899310  24.4449310
  65.4209310  53.2549310  23.5259310  66.3069310  52.5689310  24.5439310
  65.7309310  53.1929310  24.3399310  62.8589310  53.2859310  21.9559310
  62.3429310  52.6009310  22.3819310  62.3759310  54.0929310  22.1299310
  62.7309310  53.3009310  22.0329310  62.5959310  54.8289310  30.2569310
  63.3709310  54.6729310  29.7179310  62.5649310  55.7799310  30.3629310
  62.6909310  54.9309310  30.2019310  59.1659310  51.2409310  24.4859310
  58.9279310  50.4279310  24.9299310  58.3609310  51.5189310  24.0489310
  59.0329310  51.1729310  24.4869310  64.3589310  50.6609310  35.7929310
  64.6289310  49.7569310  35.9529310  63.4069310  50.6479310  35.8939310
  64.2719310  50.5439310  35.8269310  64.6689310  46.3669310  33.4899310
  64.0589310  45.6309310  33.5459310  64.2369310  46.9909310  32.9069310
  64.5359310  46.3519310  33.4229310  54.9229310  50.2829310  23.6869310
  54.2229310  50.6809310  23.1699310  55.3549310  49.6799310  23.0809310
  54.8889310  50.2569310  23.5429310  65.3699310  53.1769310  35.1189310
  65.7789310  53.3489310  35.9669310  65.1009310  52.2599310  35.1639310
  65.3879310  53.0819310  35.2329310  64.3839310  37.8389310  33.3869310
  64.0969310  38.6649310  33.7779310  64.1609310  37.9229310  32.4599310
  64.3179310  37.9559310  33.3189310  68.0369310  52.4689310  22.1169310
  68.6239310  52.2919310  21.3819310  67.4459310  53.1489310  21.7929310
  68.0359310  52.5329310  21.9809310  50.8289310  51.9649310  19.8739310
  51.3859310  51.2059310  20.0459310  51.3969310  52.7189310  20.0299310
  50.9729310  51.9639310  19.9159310  67.8769310  50.8239310  37.1119310
  67.1049310  50.8549310  37.6759310  68.4939310  51.4339310  37.5179310
  67.8569310  50.9059310  37.2369310  62.7779310  45.9509310  37.1809310
  61.9669310  45.9889310  36.6739310  63.1419310  45.0879310  36.9859310
  62.7209310  45.8459310  37.0909310  62.5719310  41.9149310  37.0759310
  61.7879310  41.8759310  37.6239310  63.2089310  41.3639310  37.5299310
  62.5529310  41.8399310  37.2039310  68.1679310  35.7069310  26.6099310
  67.5719310  35.3569310  27.2719310  68.8859310  35.0749310  26.5749310
  68.1839310  35.5819310  26.6899310  64.4319310  52.7079310  31.7539310
  63.9589310  53.5409310  31.7469310  63.9009310  52.1269310  31.2099310
  64.3029310  52.7399310  31.6839310  56.5439310  37.3789310  13.7379310
  56.7719310  37.3509310  14.6669310  55.9149310  36.6669310  13.6249310
  56.4929310  37.2839310  13.8429310  58.7079310  49.0089310   7.1609310
  58.5339310  49.1699310   8.0889310  57.9429310  48.5229310   6.8549310
  58.5879310  48.9669310   7.2409310  54.4599310  35.6649310  13.2439310
  53.8999310  36.1129310  13.8779310  54.3139310  34.7339310  13.4109310
  54.3699310  35.6029310  13.3459310  55.2789310  43.9059310   2.4919310
  55.1249310  44.3629310   3.3189310  55.9909310  43.2959310   2.6839310
  55.3499310  43.8859310   2.6219310  58.6739310  39.1149310  13.0969310
  58.0709310  38.4739310  13.4719310  59.4629310  39.0459310  13.6349310
  58.6979310  39.0249310  13.2139310  52.1659310  50.1619310   7.4549310
  52.2039310  51.0549310   7.1109310  51.3669310  50.1409310   7.9809310
  52.0689310  50.2739310   7.4779310  56.8769310  51.9519310   4.1439310
  56.0779310  51.4249310   4.1539310  57.2209310  51.8489310   3.2569310
  56.8189310  51.8709310   4.0319310  60.7849310  46.9369310   6.6109310
  60.3589310  46.3299310   6.0069310  60.1219310  47.6039310   6.7889310
  60.6459310  46.9449310   6.5569310  66.5369310  37.5689310   5.8639310
  66.6049310  36.6219310   5.7399310  67.4059310  37.8339310   6.1649310
  66.6569310  37.4819310   5.8869310  67.6559310  41.8599310   7.7049310
  66.8769310  41.9699310   8.2499310  67.9999310  42.7459310   7.5959310
  67.5999310  41.9869310   7.7609310  67.5989310  45.7649310   3.8859310
  67.2329310  46.4059310   4.4959310  66.8339310  45.3429310   3.4939310
  67.4539310  45.7929310   3.9139310  65.9239310  37.7949310   2.9909310
  66.0559310  37.6509310   3.9279310  65.0559310  38.1939310   2.9309310
  65.8299310  37.8269310   3.1039310  62.5739310  49.5319310   7.4919310
  62.7499310  50.3819310   7.0889310  61.8149310  49.1949310   7.0179310
  62.4999310  49.5979310   7.3799310  62.3639310  52.8569310   8.7439310
  62.9499310  53.5939310   8.5689310  61.5819310  53.0429310   8.2249310
  62.3389310  52.9749310   8.6549310  54.6859310  40.1119310   7.2639310
  54.2789310  40.1109310   6.3969310  54.1999310  40.7749310   7.7549310
  54.5719310  40.1969310   7.2159310  54.1129310  37.2989310   5.9819310
  53.3549310  37.2859310   6.5669310  54.6449310  36.5549310   6.2629310
  54.0839310  37.2019310   6.0929310  58.7729310  41.4979310   5.8129310
  57.9479310  41.4799310   5.3279310  58.5219310  41.3119310   6.7179310
  58.6349310  41.4719310   5.8669310  55.8869310  51.1629310  10.4299310
  55.6259310  50.7879310  11.2709310  56.6179310  50.6179310  10.1409310
  55.9469310  51.0449310  10.4999310  54.1249310  49.3559310   9.1449310
  53.4009310  49.6589310   8.5969310  54.7189310  50.1059310   9.1929310
  54.1089310  49.4909310   9.0809310  58.0249310  51.5819310   1.7759310
  58.4839310  50.7599310   1.9479310  58.7229310  52.2219310   1.6369310
  58.1729310  51.5589310   1.7799310  61.0449310  37.8919310   8.9419310
  60.0929310  37.8289310   9.0129310  61.3729310  37.1639310   9.4699310
  60.9649310  37.7909310   9.0189310  66.1739310  45.8999310  11.0639310
  66.6139310  46.4069310  11.7469310  65.5019310  45.4029310  11.5299310
  66.1449310  45.9009310  11.2109310  67.3889310  47.6679310  13.2919310
  66.6749310  48.2729310  13.0929310  68.1049310  48.2309310  13.5889310
  67.3899310  47.8169310  13.3049310  60.9009310  48.7289310   2.2299310
  61.2049310  47.8359310   2.3859310  61.4279310  49.2689310   2.8189310
  61.0069310  48.6839310   2.3249310  63.5239310  39.2169310   2.8059310
  63.6279310  39.5609310   3.6929310  63.3939310  39.9929310   2.2609310
  63.5209310  39.3599310   2.8499310  66.1659310  40.0649310  10.1329310
  67.0779310  40.0759310  10.4259310  66.1659310  39.4799310   9.3749310
  66.2829310  39.9909310  10.0739310  50.9219310  36.3069310  10.6969310
  51.7559310  36.7609310  10.5729310  50.3339310  36.7059310  10.0569310
  50.9539310  36.4159310  10.5999310  58.3559310  40.9019310   8.4469310
  58.4419310  40.1179310   8.9899310  58.7959310  41.5889310   8.9469310
  58.4229310  40.8899310   8.5799310  67.0339310  49.6419310   3.7829310
  67.1549310  50.5169310   3.4149310  67.2429310  49.0479310   3.0619310
  67.0759310  49.6779310   3.6429310  65.4519310  35.0409310   2.6609310
  65.5799310  35.9559310   2.4089310  64.5029310  34.9459310   2.7459310
  65.3469310  35.1459310   2.6399310  51.4309310  53.1239310   4.9659310
  50.6499310  52.9929310   4.4279310  51.4009310  54.0489310   5.2099310
  51.3269310  53.2259310   4.9279310  57.7839310  49.3899310   9.6559310
  57.3039310  48.5819310   9.8329310  58.5139310  49.3759310  10.2749310
  57.8159310  49.2849310   9.7579310  71.1959310  42.3069310   8.0399310
  71.2099310  41.9939310   8.9449310  71.1469310  43.2599310   8.1169310
  71.1919310  42.3889310   8.1659310  60.5889310  40.2429310   1.9229310
  59.9629310  39.5189310   1.9469310  60.8069310  40.4019310   2.8409310
  60.5369310  40.1709310   2.0429310  57.3269310  41.8909310  14.0429310
  56.4819310  41.5709310  14.3599310  57.7999310  41.0999310  13.7839310
  57.2789310  41.7489310  14.0509310  53.1619310  51.6489310   3.4999310
  52.5799310  52.1469310   4.0729310  53.3909310  52.2599310   2.7999310
  53.1169310  51.7909310   3.4839310  66.7609310  43.2079310   1.9239310
  66.3039310  42.9669310   2.7299310  67.6869310  43.0679310   2.1229310
  66.8209310  43.1589310   2.0529310  65.5049310  49.8279310  13.7619310
  65.1539310  49.7249310  14.6469310  65.6529310  50.7699310  13.6719310
  65.4789310  49.9349310  13.8639310  67.6419310  51.5949310  15.6409310
  67.8399310  51.1999310  16.4909310  66.9709310  52.2499310  15.8319310
  67.5809310  51.6279310  15.7739310  64.8859310  38.9249310   7.5119310
  65.5819310  38.5389310   6.9789310  64.2759310  38.2029310   7.6669310
  64.8969310  38.7829310   7.4629310  60.7869310  40.3609310   4.5869310
  59.9639310  40.6439310   4.9829310  61.4649310  40.7469310   5.1419310
  60.7689310  40.4459310   4.7089310  62.8059310  45.4619310   8.1349310
  63.3509310  45.9629310   8.7419310  62.1119310  46.0689310   7.8779310
  62.7869310  45.6029310   8.1799310  50.7889310  47.0279310   8.9559310
  51.1829310  46.9579310   8.0859310  51.4009310  46.5729310   9.5329310
  50.9179310  46.9609310   8.9179310  65.5099310  42.7079310   4.3279310
  65.4669310  43.3269310   5.0579310  65.1439310  41.8969310   4.6799310
  65.4579310  42.6839310   4.4669310  60.2599310  43.5719310   4.8069310
  59.5879310  42.8909310   4.8369310  60.3389310  43.7889310   3.8779310
  60.1839310  43.5129310   4.6919310  56.3099310  47.0649310  10.7539310
  56.2699310  46.1099310  10.7169310  55.8549310  47.2929310  11.5639310
  56.2469310  46.9719310  10.8529310  49.8929310  42.8199310   4.5729310
  50.5579310  43.4199310   4.9109310  49.0609310  43.2539310   4.7619310
  49.8719310  42.9519310   4.6409310  52.2259310  47.2649310   6.7749310
  52.9049310  46.9849310   7.3889310  52.3239310  48.2149310   6.7259310
  52.3249310  47.3509310   6.8479310  51.8959310  37.4559310   7.5399310
  51.6579310  36.6369310   7.1059310  51.1349310  38.0239310   7.4129310
  51.7679310  37.4239310   7.4679310  56.4669310  36.2709310   3.5439310
  56.7119310  35.3959310   3.8449310  56.2519310  36.7479310   4.3449310
  56.4709310  36.2199310   3.6849310  61.6989310  38.0199310   6.0819310
  61.4049310  38.7349310   5.5179310  61.4279310  38.2809310   6.9619310
  61.6269310  38.1449310   6.1219310  60.1529310  49.6759310  11.1639310
  60.0889310  49.1559310  11.9659310  60.6979310  50.4249310  11.4069310
  60.2139310  49.7049310  11.2979310  65.6519310  48.5719310   7.7829310
  64.7369310  48.5819310   7.4999310  65.7739310  47.7039310   8.1679310
  65.5499310  48.4619310   7.7959310  55.2739310  44.8889310   4.8669310
  56.0969310  45.3749310   4.8289310  55.3249310  44.3939310   5.6839310
  55.3859310  44.8879310   4.9659310  51.9649310  52.7639310   8.9429310
  51.4229310  53.1869310   9.6099310  52.8639310  52.9609310   9.2049310
  52.0099310  52.8439310   9.0619310  57.5689310  46.5259310   4.8689310
  57.0459310  47.2289310   5.2549310  57.5809310  46.7219310   3.9329310
  57.5039310  46.6409310   4.7989310  66.4639310  32.4729310  10.4319310
  66.6099310  32.8779310  11.2869310  65.5189310  32.5409310  10.2929310
  66.3619310  32.5329310  10.5239310  62.5519310  42.6079310   8.1459310
  63.0499310  42.4009310   7.3549310  62.7359310  43.5329310   8.3099310
  62.6389310  42.6999310   8.0659310  51.1409310  46.3909310   2.3449310
  51.9079310  46.0679310   2.8199310  50.3989310  46.1519310   2.8999310
  51.1439310  46.3189310   2.4769310  67.2399310  53.3799310  10.2139310
  67.0929310  52.4369310  10.2949310  67.8939310  53.5779310  10.8849310
  67.3049310  53.2839310  10.3099310  68.5729310  49.6579310   8.9999310
  67.7289310  50.0709310   9.1839310  68.4409310  48.7359310   9.2179310
  68.4479310  49.5929310   9.0509310  59.8729310  43.2039310   8.7689310
  59.4659310  43.9639310   8.3529310  60.7349310  43.1389310   8.3589310
  59.9309310  43.2929310   8.6629310  64.4099310  44.4429310   6.2509310
  65.0839310  44.8549310   6.7909310  63.5999310  44.8889310   6.4969310
  64.3929310  44.5529310   6.3509310  52.5639310  44.9339310   9.7539310
  53.5209310  44.9179310   9.7349310  52.3189310  44.1199310  10.1939310
  52.6549310  44.8279310   9.8079310  68.0319310  43.8719310  11.2369310
  67.6429310  43.3979310  11.9729310  67.4969310  44.6609310  11.1509310
  67.9139310  43.9119310  11.3199310  61.4059310  40.4199310  10.1029310
  62.0319310  40.8699310   9.5359310  61.2639310  39.5729310   9.6789310
  61.4679310  40.3689310   9.9759310  61.4299310  37.1649310   2.8589310
  60.6709310  37.4129310   2.3309310  61.9849310  37.9449310   2.8599310
  61.4039310  37.2969310   2.7919310  53.9649310  40.4579310   4.5759310
  53.8749310  40.1869310   3.6629310  53.0669310  40.6149310   4.8689310
  53.8379310  40.4439310   4.4969310  63.5519310  36.3489310   7.3719310
  62.8899310  36.7549310   6.8119310  64.2469310  36.0859310   6.7689310
  63.5559310  36.3679310   7.2229310  55.9109310  43.3739310   6.9759310
  56.0989310  42.6219310   6.4139310  56.7669310  43.7649310   7.1459310
  56.0439310  43.3279310   6.9259310  54.5579310  35.2439310   9.1349310
  54.7289310  36.1649310   9.3339310  55.1239310  34.7599310   9.7359310
  54.6519310  35.2999310   9.2369310  55.4119310  44.3709310   9.5279310
  55.6689310  43.9529310   8.7059310  55.4959310  43.6789310  10.1839310
  55.4559310  44.2289310   9.5069310  62.7239310  48.8259310   9.9869310
  62.8219310  49.0729310   9.0669310  61.8699310  49.1759310  10.2389310
  62.6269310  48.9019310   9.9019310  60.1139310  53.2399310   7.3259310
  59.9289310  52.4129310   6.8799310  59.8019310  53.9129310   6.7209310
  60.0499310  53.2199310   7.1909310  63.8119310  51.2519310  10.5259310
  63.2679310  51.8519310  10.0149310  63.4209310  50.3909310  10.3799310
  63.6929310  51.2189310  10.4419310  57.9039310  53.6199310   9.4989310
  57.8699310  52.9329310  10.1639310  58.3799310  53.2249310   8.7689310
  57.9599310  53.4819310   9.4909310  59.7829310  44.3479310   2.1869310
  60.5129310  44.9679310   2.1759310  59.0009310  44.8989310   2.1559310
  59.7759310  44.4979310   2.1809310  59.4149310  41.7289310  11.3029310
  58.9659310  40.9749310  11.6849310  60.1369310  41.3489310  10.8029310
  59.4499310  41.5839310  11.2879310  60.9499310  45.8529310  13.0149310
  60.6739310  46.6769310  13.4169310  61.9009310  45.8399310  13.1239310
  61.0369310  45.9569310  13.0799310  56.4379310  38.4659310   5.2859310
  56.2899310  39.4089310   5.2079310  55.6459310  38.1339310   5.7099310
  56.3179310  38.5439310   5.3299310  60.0889310  38.8099310  17.7049310
  59.6229310  39.4079310  18.2889310  60.6839310  39.3739310  17.2099310
  60.1049310  38.9579310  17.7159310  55.6939310  38.9549310   1.8809310
  54.7769310  38.7399310   2.0469310  56.1689310  38.5669310   2.6159310
  55.6369310  38.8779310   1.9959310  63.2959310  51.7059310   6.1159310
  62.9279310  52.2869310   6.7809310  64.1869310  52.0289310   5.9819310
  63.3629310  51.8219310   6.1839310  61.4009310  44.1429310  11.1009310
  61.1329310  44.7859310  11.7579310  60.6019310  43.9609310  10.6049310
  61.2639310  44.2019310  11.1209310  51.2989310  40.6819310   5.7639310
  51.6989310  41.2669310   6.4079310  50.8349310  41.2669310   5.1649310
  51.2909310  40.8319310   5.7699310  61.5999310  36.6979310  17.8009310
  61.5969310  36.4079310  16.8889310  60.9279310  37.3789310  17.8379310
  61.5129310  36.7479310  17.6889310  67.1329310  52.1129310  12.9989310
  67.4149310  52.0169310  13.9089310  66.3519310  52.6639310  13.0479310
  67.0689310  52.1709310  13.1219310  54.7849310  46.7749310   8.0579310
  54.6979310  47.5549310   8.6069310  54.8569310  46.0509310   8.6809310
  54.7829310  46.7819310   8.2079310  50.4159310  37.8589310   3.2629310
  50.3589310  37.6049310   2.3419310  49.8679310  38.6409310   3.3309310
  50.3389310  37.9269310   3.1539310  55.9689310  35.4319310   6.6939310
  55.5639310  35.1009310   7.4959310  56.0759310  34.6579310   6.1419310
  55.9309310  35.2909310   6.7259310  67.0539310  50.8909310   6.4339310
  67.1239310  50.2619310   7.1509310  67.1199310  50.3589310   5.6409310
  67.0709310  50.7429310   6.4239310  56.5119310  41.4779310   4.5799310
  56.8849310  41.4129310   3.7009310  55.6069310  41.1819310   4.4789310
  56.4439310  41.4309310   4.4549310  56.2109310  48.6349310   3.0139310
  55.4789310  48.1459310   2.6379310  56.8709310  48.6479310   2.3219310
  56.2009310  48.5739310   2.8779310  58.6569310  38.3749310   6.9649310
  57.8049310  38.2369310   6.5529310  58.7069310  39.3219310   7.1009310
  58.5549310  38.4789310   6.9299310  61.6639310  50.9249310   4.0739310
  60.9789310  50.8529310   4.7389310  62.4619310  51.1029310   4.5709310
  61.6779310  50.9379310   4.2229310  59.3749310  36.5489310   5.0559310
  59.1499310  37.3339310   5.5549310  60.2739310  36.7009310   4.7639310
  59.4619310  36.6689310   5.0829310  64.8019310  36.2689310   9.9259310
  65.6729310  35.8759310   9.9829310  64.7029310  36.4999310   9.0029310
  64.9009310  36.2479310   9.8149310  61.7099310  36.5359310  15.0599310
  61.4499310  35.7599310  14.5629310  62.6659310  36.5409310  15.0119310
  61.7989310  36.4369310  14.9899310  64.8269310  40.1339310   5.1739310
  64.6059310  39.8839310   6.0719310  65.6429310  39.6679310   4.9909310
  64.9029310  40.0419310   5.2659310  58.6299310  38.6839310  10.3409310
  57.7789310  38.2529310  10.2539310  58.7289310  38.8309310  11.2819310
  58.5329310  38.6479310  10.4499310  56.0519310  48.2179310   6.1769310
  55.4159310  47.7629310   6.7279310  55.5639310  48.9519310   5.8039310
  55.9089310  48.2539310   6.1999310  67.5179310  40.1579310   3.0099310
  66.6949310  39.6709310   2.9619310  67.2659310  41.0219310   3.3379310
  67.3809310  40.2059310   3.0459310  52.6049310  38.8389310   9.9549310
  52.5109310  38.3719310   9.1249310  53.4279310  38.5159310  10.3199310
  52.6979310  38.7379310   9.8959310  66.3099310  47.3499310   5.2779310
  66.3319310  47.4659310   6.2279310  66.4829310  48.2229310   4.9269310
  66.3349310  47.4769310   5.3549310  65.6849310  53.2899310   5.5849310
  65.4209310  53.2549310   4.6659310  66.3069310  52.5689310   5.6839310
  65.7309310  53.1929310   5.4799310  62.8589310  53.2859310   3.0959310
  62.3429310  52.6009310   3.5219310  62.3759310  54.0929310   3.2699310
  62.7309310  53.3009310   3.1729310  54.7679310  38.0969310  11.2109310
  55.2199310  37.5179310  11.8249310  55.3309310  38.1119310  10.4379310
  54.8979310  38.0249310  11.1909310  59.1659310  51.2409310   5.6259310
  58.9279310  50.4279310   6.0699310  58.3609310  51.5189310   5.1889310
  59.0329310  51.1729310   5.6269310  51.9629310  44.5959310   5.2399310
  52.9189310  44.6279310   5.2669310  51.6919310  45.5129310   5.2779310
  52.0509310  44.7169310   5.2479310  53.3219310  37.8859310   3.2109310
  53.6299310  37.9509310   4.1149310  52.4039310  37.6279310   3.2899310
  53.2439310  37.8609310   3.3369310  62.6309310  42.1469310   5.5949310
  63.2509310  42.5909310   5.0159310  61.8209310  42.6509310   5.5099310
  62.6069310  42.2689310   5.5099310  54.9229310  50.2829310   4.8269310
  54.2229310  50.6809310   4.3099310  55.3549310  49.6799310   4.2209310
  54.8889310  50.2569310   4.6829310  63.5239310  48.2259310  12.6489310
  63.3509310  48.1489310  11.7109310  64.3069310  48.7729310  12.7039310
  63.6019310  48.2859310  12.5359310  58.3419310  44.6099310   6.9679310
  58.8559310  44.0099310   6.4279310  58.0679310  45.2999310   6.3639310
  58.3719310  44.6209310   6.8219310  68.0369310  52.4689310   3.2569310
  68.6239310  52.2919310   2.5219310  67.4459310  53.1489310   2.9329310
  68.0359310  52.5329310   3.1209310  67.8769310  50.8239310  18.2519310
  67.1049310  50.8549310  18.8159310  68.4939310  51.4339310  18.6579310
  67.8569310  50.9059310  18.3769310  68.3989310  39.1749310   7.0129310
  68.9809310  39.6599310   6.4269310  67.8329310  39.8449310   7.3959310
  68.4009310  39.3229310   6.9869310  56.1179310  37.9939310   8.8789310
  55.9399310  38.5839310   8.1469310  56.6029310  37.2669310   8.4889310
  56.1569310  37.9769310   8.7359310  49.7229310  44.5839310   7.4559310
  50.3199310  44.8399310   6.7519310  50.0259310  45.0789310   8.2179310
  49.8379310  44.6799310   7.4629310  66.0919310  45.6809310   8.2419310
  66.9449310  45.3399310   7.9719310  66.1139310  45.6519310   9.1979310
  66.2039310  45.6329310   8.3289310  68.1679310  35.7069310   7.7499310
  67.5719310  35.3569310   8.4119310  68.8859310  35.0749310   7.7149310
  68.1839310  35.5819310   7.8299310  64.2379310  46.3519310   3.4569310
  64.6339310  46.6929310   4.2589310  64.7289310  46.7709310   2.7499310
  64.3509310  46.4489310   3.4689310  64.4319310  52.7079310  12.8939310
  63.9589310  53.5409310  12.8869310  63.9009310  52.1269310  12.3499310
  64.3029310  52.7399310  12.8239310  56.5439310  18.5119310  70.3179310
  56.7719310  18.4839310  71.2469310  55.9149310  17.7999310  70.2049310
  56.4929310  18.4169310  70.4229310  53.9429310  32.6979310  70.5779310
  52.9889310  32.6299310  70.5459310  54.1319310  33.0049310  71.4639310
  53.8449310  32.7289310  70.6869310  58.7079310  30.1419310  63.7409310
  58.5339310  30.3029310  64.6689310  57.9429310  29.6559310  63.4349310
  58.5879310  30.0999310  63.8209310  54.4599310  16.7979310  69.8239310
  53.8999310  17.2459310  70.4579310  54.3139310  15.8669310  69.9909310
  54.3699310  16.7359310  69.9259310  55.2789310  25.0389310  59.0719310
  55.1249310  25.4959310  59.8989310  55.9909310  24.4289310  59.2639310
  55.3499310  25.0189310  59.2019310  58.6739310  20.2479310  69.6769310
  58.0709310  19.6069310  70.0519310  59.4629310  20.1789310  70.2149310
  58.6979310  20.1579310  69.7939310  65.4399310  31.1979310  57.2579310
  64.5779310  31.5259310  57.0019310  65.3439310  30.2459310  57.2569310
  65.3169310  31.1179310  57.2249310  52.1659310  31.2949310  64.0349310
  52.2039310  32.1879310  63.6909310  51.3669310  31.2739310  64.5609310
  52.0689310  31.4069310  64.0579310  56.8769310  33.0849310  60.7239310
  56.0779310  32.5579310  60.7339310  57.2209310  32.9819310  59.8369310
  56.8189310  33.0039310  60.6119310  61.0969310  20.0739310  70.9449310
  61.2749310  19.1919310  71.2709310  61.4159310  20.6539310  71.6369310
  61.1609310  20.0349310  71.0759310  60.7849310  28.0699310  63.1909310
  60.3589310  27.4629310  62.5869310  60.1219310  28.7369310  63.3689310
  60.6459310  28.0779310  63.1369310  66.5369310  18.7019310  62.4439310
  66.6049310  17.7549310  62.3199310  67.4059310  18.9669310  62.7449310
  66.6569310  18.6149310  62.4669310  67.6559310  22.9929310  64.2849310
  66.8769310  23.1029310  64.8299310  67.9999310  23.8789310  64.1759310
  67.5999310  23.1199310  64.3409310  58.7519310  19.1209310  58.4329310
  58.4859310  18.6579310  59.2279310  58.7679310  18.4439310  57.7569310
  58.7199310  18.9749310  58.4489310  58.9869310  26.3089310  71.7169310
  58.8589310  25.4439310  72.1059310  59.4299310  26.1339310  70.8859310
  59.0269310  26.1759310  71.6599310  61.8629310  27.2609310  58.7359310
  62.6329310  27.2819310  59.3029310  62.1819310  26.8939310  57.9119310
  62.0019310  27.2169310  58.7029310  67.5989310  26.8979310  60.4659310
  67.2329310  27.5389310  61.0759310  66.8339310  26.4759310  60.0739310
  67.4539310  26.9259310  60.4939310  50.1109310  20.6389310  70.2739310
  50.3879310  21.2079310  70.9919310  49.5089310  20.0159310  70.6809310
  50.0699310  20.6319310  70.4179310  65.5809310  28.4979310  57.4829310
  65.6229310  28.3639310  56.5359310  66.4669310  28.7649310  57.7259310
  65.6999310  28.5149310  57.3929310  50.9839310  26.9759310  72.8669310
  50.0629310  26.7559310  72.7269310  51.0639310  27.0829310  73.8139310
  50.8759310  26.9609310  72.9699310  65.9239310  18.9279310  59.5709310
  66.0559310  18.7839310  60.5079310  65.0559310  19.3269310  59.5109310
  65.8299310  18.9599310  59.6839310  62.5739310  30.6649310  64.0719310
  62.7499310  31.5149310  63.6689310  61.8149310  30.3279310  63.5979310
  62.4999310  30.7309310  63.9599310  62.3639310  33.9899310  65.3239310
  62.9499310  34.7269310  65.1489310  61.5819310  34.1759310  64.8049310
  62.3389310  34.1079310  65.2349310  54.6859310  21.2449310  63.8439310
  54.2789310  21.2439310  62.9769310  54.1999310  21.9079310  64.3349310
  54.5719310  21.3299310  63.7959310  52.8049310  17.6409310  71.8619310
  53.0119310  18.5389310  72.1189310  52.4489310  17.2399310  72.6549310
  52.7859310  17.7039310  71.9959310  54.1129310  18.4319310  62.5619310
  53.3549310  18.4189310  63.1469310  54.6449310  17.6879310  62.8429310
  54.0839310  18.3349310  62.6729310  61.1529310  22.1299310  72.8609310
  61.7389310  22.4429310  73.5499310  60.4269310  22.7549310  72.8609310
  61.1349310  22.2499310  72.9489310  58.7729310  22.6309310  62.3929310
  57.9479310  22.6129310  61.9079310  58.5219310  22.4449310  63.2979310
  58.6349310  22.6049310  62.4469310  55.8869310  32.2959310  67.0099310
  55.6259310  31.9209310  67.8509310  56.6179310  31.7509310  66.7209310
  55.9469310  32.1779310  67.0799310  54.1249310  30.4889310  65.7249310
  53.4009310  30.7919310  65.1769310  54.7189310  31.2389310  65.7729310
  54.1089310  30.6239310  65.6609310  53.5979310  24.2529310  57.0629310
  52.9949310  24.9899310  56.9669310  54.2269310  24.5429310  57.7239310
  53.6009310  24.3839310  57.1349310  58.0249310  32.7149310  58.3559310
  58.4839310  31.8929310  58.5279310  58.7229310  33.3549310  58.2169310
  58.1729310  32.6919310  58.3599310  56.7479310  23.2059310  67.3379310
  57.6289310  23.4979310  67.5699310  56.8339310  22.8719310  66.4449310
  56.8719310  23.2009310  67.2529310  61.0449310  19.0249310  65.5219310
  60.0929310  18.9619310  65.5929310  61.3729310  18.2969310  66.0499310
  60.9649310  18.9239310  65.5989310  66.1739310  27.0329310  67.6439310
  66.6139310  27.5399310  68.3269310  65.5019310  26.5359310  68.1099310
  66.1449310  27.0339310  67.7909310  67.3889310  28.8009310  69.8719310
  66.6749310  29.4059310  69.6729310  68.1049310  29.3639310  70.1689310
  67.3899310  28.9499310  69.8849310  60.9009310  29.8619310  58.8099310
  61.2049310  28.9689310  58.9659310  61.4279310  30.4019310  59.3989310
  61.0069310  29.8169310  58.9049310  63.5239310  20.3499310  59.3859310
  63.6279310  20.6939310  60.2729310  63.3939310  21.1259310  58.8409310
  63.5209310  20.4929310  59.4299310  66.1659310  21.1979310  66.7129310
  67.0779310  21.2089310  67.0059310  66.1659310  20.6129310  65.9549310
  66.2829310  21.1239310  66.6539310  64.0109310  25.5349310  68.5639310
  63.1359310  25.2779310  68.2739310  64.3629310  24.7519310  68.9879310
  63.9439310  25.4019310  68.5809310  53.7199310  32.4509310  73.7219310
  53.4679310  33.3549310  73.9129310  54.6249310  32.3859310  74.0249310
  53.8039310  32.5589310  73.7849310  55.7529310  17.5239310  57.3729310
  56.0949310  17.5329310  58.2669310  55.2679310  18.3459310  57.2949310
  55.7349310  17.6309310  57.4769310  50.9219310  17.4399310  67.2769310
  51.7559310  17.8939310  67.1529310  50.3339310  17.8389310  66.6369310
  50.9539310  17.5489310  67.1799310  58.3559310  22.0349310  65.0269310
  58.4419310  21.2509310  65.5699310  58.7959310  22.7219310  65.5269310
  58.4229310  22.0229310  65.1599310  67.0179310  19.6529310  74.3669310
  66.1189310  19.3249310  74.3619310  67.3429310  19.4759310  73.4849310
  66.9439310  19.5879310  74.2539310  67.0339310  30.7749310  60.3629310
  67.1549310  31.6499310  59.9949310  67.2429310  30.1809310  59.6419310
  67.0759310  30.8109310  60.2229310  65.4519310  16.1739310  59.2409310
  65.5799310  17.0889310  58.9889310  64.5029310  16.0789310  59.3259310
  65.3469310  16.2789310  59.2199310  51.4309310  34.2569310  61.5459310
  50.6499310  34.1259310  61.0079310  51.4009310  35.1819310  61.7899310
  51.3269310  34.3589310  61.5079310  61.4819310  30.0589310  73.4969310
  62.0639310  29.8949310  74.2379310  60.8889310  30.7449310  73.8049310
  61.4799310  30.1259310  73.6309310  57.7839310  30.5229310  66.2359310
  57.3039310  29.7149310  66.4129310  58.5139310  30.5089310  66.8549310
  57.8159310  30.4179310  66.3379310  68.6269310  17.5119310  57.2419310
  68.4509310  18.3529310  56.8209310  67.8179310  17.0129310  57.1279310
  68.5009310  17.5559310  57.1739310  71.1959310  23.4399310  64.6199310
  71.2099310  23.1269310  65.5249310  71.1469310  24.3929310  64.6969310
  71.1919310  23.5219310  64.7459310  60.5889310  21.3759310  58.5029310
  59.9629310  20.6519310  58.5269310  60.8069310  21.5349310  59.4209310
  60.5369310  21.3039310  58.6229310  57.3269310  23.0239310  70.6229310
  56.4819310  22.7039310  70.9399310  57.7999310  22.2329310  70.3639310
  57.2789310  22.8819310  70.6309310  53.1619310  32.7819310  60.0799310
  52.5799310  33.2799310  60.6529310  53.3909310  33.3929310  59.3799310
  53.1169310  32.9239310  60.0639310  67.0549310  18.8909310  71.7979310
  66.1889310  18.7269310  71.4269310  67.6369310  18.2989310  71.3199310
  67.0189310  18.7939310  71.6889310  66.7609310  24.3409310  58.5039310
  66.3039310  24.0999310  59.3099310  67.6869310  24.2009310  58.7029310
  66.8209310  24.2919310  58.6329310  56.5159310  27.2499310  71.9849310
  57.3959310  26.8769310  71.9329310  55.9779310  26.6689310  71.4479310
  56.5599310  27.1279310  71.9099310  65.5049310  30.9609310  70.3419310
  65.1539310  30.8579310  71.2269310  65.6529310  31.9029310  70.2519310
  65.4789310  31.0679310  70.4439310  67.6419310  32.7279310  72.2209310
  67.8399310  32.3329310  73.0709310  66.9709310  33.3829310  72.4119310
  67.5809310  32.7609310  72.3539310  64.8859310  20.0579310  64.0919310
  65.5819310  19.6719310  63.5589310  64.2759310  19.3359310  64.2469310
  64.8969310  19.9159310  64.0429310  62.9599310  25.5069310  71.6339310
  62.4029310  25.1129310  70.9619310  62.3839310  26.1169310  72.0939310
  62.8149310  25.5349310  71.6069310  60.7869310  21.4939310  61.1669310
  59.9639310  21.7769310  61.5629310  61.4649310  21.8799310  61.7219310
  60.7689310  21.5789310  61.2889310  53.7989310  25.0849310  69.2599310
  53.4219310  24.9579310  70.1299310  53.2359310  24.5739310  68.6779310
  53.6789310  25.0039310  69.2969310  62.8059310  26.5949310  64.7149310
  63.3509310  27.0959310  65.3219310  62.1119310  27.2019310  64.4579310
  62.7869310  26.7359310  64.7599310  50.7889310  28.1609310  65.5359310
  51.1829310  28.0909310  64.6659310  51.4009310  27.7059310  66.1129310
  50.9179310  28.0939310  65.4979310  65.5099310  23.8409310  60.9079310
  65.4669310  24.4599310  61.6379310  65.1439310  23.0299310  61.2599310
  65.4579310  23.8169310  61.0469310  60.2599310  24.7049310  61.3869310
  59.5879310  24.0239310  61.4169310  60.3389310  24.9219310  60.4579310
  60.1839310  24.6459310  61.2719310  61.4459310  33.6839310  70.5049310
  60.8969310  33.6149310  69.7249310  61.8099310  32.8069310  70.6209310
  61.4229310  33.5629310  70.4199310  54.9249310  22.0059310  69.3019310
  54.3349310  21.2669310  69.1499310  55.5369310  21.9779310  68.5669310
  54.9279310  21.9079310  69.1879310  56.3099310  28.1979310  67.3339310
  56.2699310  27.2429310  67.2969310  55.8549310  28.4259310  68.1439310
  56.2469310  28.1049310  67.4329310  64.2749310  24.8509310  74.0159310
  63.5839310  24.2109310  74.1839310  64.0669310  25.2069310  73.1529310
  64.1599310  24.8139310  73.9269310  49.8929310  23.9529310  61.1529310
  50.5579310  24.5529310  61.4909310  49.0609310  24.3869310  61.3419310
  49.8719310  24.0849310  61.2209310  52.2259310  28.3979310  63.3549310
  52.9049310  28.1179310  63.9689310  52.3239310  29.3479310  63.3059310
  52.3249310  28.4839310  63.4279310  57.6399310  27.1339310  58.4419310
  57.2569310  26.8249310  57.6209310  57.8789310  28.0449310  58.2669310
  57.6219310  27.2109310  58.3149310  51.8959310  18.5889310  64.1199310
  51.6579310  17.7699310  63.6859310  51.1349310  19.1569310  63.9929310
  51.7679310  18.5569310  64.0479310  56.4669310  17.4039310  60.1239310
  56.7119310  16.5289310  60.4249310  56.2519310  17.8809310  60.9249310
  56.4709310  17.3529310  60.2649310  61.6989310  19.1529310  62.6619310
  61.4049310  19.8679310  62.0979310  61.4279310  19.4139310  63.5419310
  61.6269310  19.2779310  62.7019310  60.1529310  30.8089310  67.7439310
  60.0889310  30.2889310  68.5459310  60.6979310  31.5579310  67.9869310
  60.2139310  30.8379310  67.8779310  65.6519310  29.7049310  64.3629310
  64.7369310  29.7149310  64.0799310  65.7739310  28.8369310  64.7479310
  65.5499310  29.5949310  64.3759310  53.3049310  21.6689310  58.1579310
  52.3799310  21.4259310  58.1959310  53.3009310  22.5889310  57.8929310
  53.1869310  21.7559310  58.1289310  55.2739310  26.0219310  61.4469310
  56.0969310  26.5079310  61.4089310  55.3249310  25.5269310  62.2639310
  55.3859310  26.0209310  61.5459310  51.9649310  33.8969310  65.5229310
  51.4229310  34.3199310  66.1899310  52.8639310  34.0939310  65.7849310
  52.0099310  33.9769310  65.6419310  57.5689310  27.6589310  61.4489310
  57.0459310  28.3619310  61.8349310  57.5809310  27.8549310  60.5129310
  57.5039310  27.7739310  61.3789310  64.6119310  22.5259310  57.6129310
  65.0899310  22.1729310  56.8639310  65.1139310  23.2979310  57.8759310
  64.7369310  22.5799310  57.5509310  53.5059310  27.9619310  72.4429310
  53.4679310  28.2789310  71.5409310  52.6339310  27.6029310  72.6079310
  53.3889310  27.9559310  72.3489310  57.4139310  29.7019310  71.0179310
  56.6309310  30.1079310  70.6489310  57.1259310  28.8309310  71.2909310
  57.2769310  29.6419310  71.0059310  51.1519310  31.7139310  67.7609310
  51.8069310  32.0749310  67.1639310  50.4739310  31.3589310  67.1859310
  51.1489310  31.7149310  67.6109310  66.4639310  13.6059310  67.0119310
  66.6099310  14.0109310  67.8669310  65.5189310  13.6739310  66.8729310
  66.3619310  13.6659310  67.1039310  56.4399310  25.6589310  69.4969310
  56.7649310  24.8559310  69.9039310  55.5709310  25.4269310  69.1709310
  56.3699310  25.5269310  69.5069310  62.5519310  23.7409310  64.7259310
  63.0499310  23.5339310  63.9349310  62.7359310  24.6659310  64.8899310
  62.6389310  23.8329310  64.6459310  57.1769310  22.4869310  58.4669310
  56.6959310  21.6699310  58.3359310  57.6109310  22.6459310  57.6289310
  57.1709310  22.4029310  58.3429310  51.1409310  27.5239310  58.9249310
  51.9079310  27.2009310  59.3999310  50.3989310  27.2849310  59.4799310
  51.1439310  27.4519310  59.0569310  67.2399310  34.5129310  66.7939310
  67.0929310  33.5699310  66.8749310  67.8939310  34.7109310  67.4649310
  67.3049310  34.4169310  66.8899310  68.5729310  30.7909310  65.5799310
  67.7289310  31.2039310  65.7639310  68.4409310  29.8689310  65.7979310
  68.4479310  30.7259310  65.6309310  50.4789310  21.2799310  67.6209310
  51.2769310  20.9299310  67.2259310  50.4589310  20.8999310  68.4989310
  50.5779310  21.1859310  67.6829310  59.8729310  24.3369310  65.3489310
  59.4659310  25.0969310  64.9329310  60.7349310  24.2719310  64.9389310
  59.9309310  24.4259310  65.2429310  64.4099310  25.5759310  62.8309310
  65.0839310  25.9879310  63.3709310  63.5999310  26.0219310  63.0769310
  64.3929310  25.6859310  62.9309310  52.5639310  26.0669310  66.3339310
  53.5209310  26.0509310  66.3149310  52.3189310  25.2529310  66.7739310
  52.6549310  25.9609310  66.3879310  62.8669310  20.0769310  68.8729310
  62.4129310  20.5189310  68.1549310  62.3249310  20.2519310  69.6419310
  62.7399310  20.1559310  68.8789310  68.0319310  25.0049310  67.8169310
  67.6429310  24.5309310  68.5529310  67.4969310  25.7939310  67.7309310
  67.9139310  25.0449310  67.8999310  61.4059310  21.5529310  66.6829310
  62.0319310  22.0029310  66.1159310  61.2639310  20.7059310  66.2589310
  61.4679310  21.5019310  66.5559310  59.9409310  29.4299310  70.1819310
  60.3339310  30.2509310  70.4779310  59.0279310  29.4849310  70.4639310
  59.8749310  29.5419310  70.2559310  61.4299310  18.2979310  59.4389310
  60.6709310  18.5459310  58.9109310  61.9849310  19.0779310  59.4399310
  61.4039310  18.4299310  59.3719310  53.9649310  21.5909310  61.1559310
  53.8749310  21.3199310  60.2429310  53.0669310  21.7479310  61.4489310
  53.8379310  21.5769310  61.0769310  63.5519310  17.4819310  63.9519310
  62.8899310  17.8879310  63.3919310  64.2469310  17.2189310  63.3489310
  63.5559310  17.5009310  63.8029310  65.1649310  22.7139310  69.3309310
  64.8999310  22.0619310  69.9809310  65.3839310  22.2009310  68.5529310
  65.1589310  22.5649310  69.3149310  55.9109310  24.5069310  63.5559310
  56.0989310  23.7549310  62.9939310  56.7669310  24.8979310  63.7259310
  56.0439310  24.4609310  63.5059310  57.5669310  19.3669310  72.7959310
  58.4889310  19.4429310  73.0399310  57.1149310  19.9839310  73.3709310
  57.6269310  19.4549310  72.8999310  54.5579310  16.3769310  65.7149310
  54.7289310  17.2979310  65.9139310  55.1239310  15.8929310  66.3159310
  54.6519310  16.4329310  65.8169310  58.3609310  29.7139310  57.8389310
  59.2049310  29.6759310  58.2899310  58.5839310  29.9189310  56.9309310
  58.4979310  29.7349310  57.7809310  55.4119310  25.5039310  66.1079310
  55.6689310  25.0859310  65.2859310  55.4959310  24.8119310  66.7639310
  55.4559310  25.3619310  66.0869310  62.7239310  29.9589310  66.5669310
  62.8219310  30.2059310  65.6469310  61.8699310  30.3089310  66.8189310
  62.6269310  30.0349310  66.4819310  60.1139310  34.3729310  63.9059310
  59.9289310  33.5459310  63.4599310  59.8019310  35.0459310  63.3009310
  60.0499310  34.3529310  63.7709310  61.7019310  33.6079310  56.9959310
  61.8599310  34.4469310  56.5629310  61.9639310  33.7549310  57.9049310
  61.7559310  33.7339310  57.0569310  63.8119310  32.3849310  67.1059310
  63.2679310  32.9849310  66.5949310  63.4209310  31.5239310  66.9599310
  63.6929310  32.3519310  67.0219310  67.5869310  23.7939310  70.7289310
  66.6909310  23.4689310  70.6419310  67.4869310  24.6889310  71.0539310
  67.4589310  23.8669310  70.7599310  57.9039310  34.7529310  66.0789310
  57.8699310  34.0659310  66.7439310  58.3799310  34.3579310  65.3489310
  57.9599310  34.6149310  66.0709310  59.7829310  25.4809310  58.7669310
  60.5129310  26.1009310  58.7559310  59.0009310  26.0319310  58.7359310
  59.7759310  25.6309310  58.7609310  59.4149310  22.8619310  67.8829310
  58.9659310  22.1079310  68.2649310  60.1369310  22.4819310  67.3829310
  59.4499310  22.7169310  67.8679310  60.9499310  26.9859310  69.5949310
  60.6739310  27.8099310  69.9969310  61.9009310  26.9729310  69.7039310
  61.0369310  27.0899310  69.6599310  56.4379310  19.5989310  61.8659310
  56.2899310  20.5419310  61.7879310  55.6459310  19.2669310  62.2899310
  56.3179310  19.6769310  61.9099310  60.3059310  34.2089310  67.8439310
  61.0959310  34.7469310  67.7899310  59.7059310  34.6009310  67.2099310
  60.3299310  34.3279310  67.7559310  55.6939310  20.0879310  58.4609310
  54.7769310  19.8729310  58.6269310  56.1689310  19.6999310  59.1959310
  55.6369310  20.0109310  58.5759310  52.3359310  24.8339310  71.7319310
  51.6569310  25.4729310  71.9519310  51.9269310  23.9849310  71.8949310
  52.1959310  24.8069310  71.7809310  63.2959310  32.8389310  62.6959310
  62.9279310  33.4199310  63.3609310  64.1869310  33.1619310  62.5619310
  63.3629310  32.9549310  62.7639310  50.4839310  17.7429310  70.3139310
  51.3459310  17.7039310  70.7279310  50.6699310  17.8929310  69.3869310
  50.6179310  17.7569310  70.2479310  61.4009310  25.2759310  67.6809310
  61.1329310  25.9189310  68.3379310  60.6019310  25.0939310  67.1849310
  61.2639310  25.3349310  67.7009310  51.2989310  21.8149310  62.3439310
  51.6989310  22.3999310  62.9879310  50.8349310  22.3999310  61.7449310
  51.2909310  21.9649310  62.3499310  61.3779310  23.6099310  70.2429310
  61.2149310  23.9189310  69.3519310  60.5169310  23.3459310  70.5659310
  61.2469310  23.6159310  70.1709310  61.5999310  17.8309310  74.3809310
  61.5969310  17.5409310  73.4689310  60.9279310  18.5119310  74.4179310
  61.5129310  17.8809310  74.2689310  53.2589310  16.4939310  58.3889310
  53.2599310  17.2359310  58.9929310  53.7629310  16.7979310  57.6349310
  53.3239310  16.6279310  58.3699310  54.1749310  28.5299310  58.6729310
  54.2609310  28.4789310  57.7209310  53.6219310  29.2979310  58.8219310
  54.1149310  28.6219310  58.5699310  61.3099310  27.2729310  72.7789310
  60.4919310  27.1169310  72.3079310  61.3579310  28.2249310  72.8679310
  61.2119310  27.3749310  72.7299310  65.6599310  21.9689310  74.0099310
  66.3729310  21.3369310  74.1049310  66.0999310  22.8059310  73.8639310
  65.8069310  21.9949310  74.0029310  51.6889310  23.7509310  67.5319310
  50.9099310  24.2569310  67.7629310  51.4269310  22.8379310  67.6549310
  51.5559310  23.6989310  67.5769310  67.1329310  33.2459310  69.5789310
  67.4149310  33.1499310  70.4889310  66.3519310  33.7969310  69.6279310
  67.0689310  33.3039310  69.7019310  54.7849310  27.9079310  64.6379310
  54.6979310  28.6879310  65.1869310  54.8569310  27.1839310  65.2609310
  54.7829310  27.9149310  64.7879310  50.4159310  18.9919310  59.8429310
  50.3589310  18.7379310  58.9219310  49.8679310  19.7739310  59.9109310
  50.3389310  19.0599310  59.7339310  54.8869310  23.0489310  71.8219310
  54.7959310  22.9289310  70.8769310  54.1629310  23.6269310  72.0599310
  54.7829310  23.1079310  71.7309310  55.9689310  16.5649310  63.2739310
  55.5639310  16.2339310  64.0759310  56.0759310  15.7909310  62.7219310
  55.9309310  16.4239310  63.3059310  67.0539310  32.0239310  63.0139310
  67.1239310  31.3949310  63.7309310  67.1199310  31.4919310  62.2209310
  67.0709310  31.8759310  63.0039310  56.5119310  22.6109310  61.1599310
  56.8849310  22.5459310  60.2809310  55.6069310  22.3149310  61.0589310
  56.4439310  22.5639310  61.0349310  56.2109310  29.7679310  59.5939310
  55.4789310  29.2789310  59.2179310  56.8709310  29.7809310  58.9019310
  56.2009310  29.7069310  59.4579310  58.6569310  19.5079310  63.5449310
  57.8049310  19.3699310  63.1329310  58.7069310  20.4549310  63.6809310
  58.5549310  19.6119310  63.5099310  51.1569310  33.1129310  70.1649310
  50.8639310  32.8399310  69.2949310  50.8489310  34.0149310  70.2489310
  51.0799310  33.1929310  70.0639310  53.5289310  20.1759310  72.7359310
  54.3199310  20.2089310  72.1989310  53.1689310  21.0619310  72.6879310
  53.5839310  20.2929310  72.6609310  59.7019310  23.1789310  56.7839310
  59.6829310  23.8289310  57.4859310  60.0569310  22.3909310  57.1959310
  59.7449310  23.1619310  56.9259310  64.6849310  18.4289310  74.2049310
  64.7459310  18.0819310  73.3149310  63.7449310  18.4769310  74.3789310
  64.5719310  18.3909310  74.1129310  55.0719310  30.4769310  69.5629310
  54.5019310  31.1639310  69.9099310  54.6199310  29.6609310  69.7769310
  54.9409310  30.4609310  69.6349310  61.6639310  32.0579310  60.6539310
  60.9789310  31.9859310  61.3189310  62.4619310  32.2359310  61.1509310
  61.6779310  32.0709310  60.8029310  59.3749310  17.6819310  61.6359310
  59.1499310  18.4669310  62.1349310  60.2739310  17.8339310  61.3439310
  59.4619310  17.8019310  61.6629310  64.8019310  17.4019310  66.5059310
  65.6729310  17.0089310  66.5629310  64.7029310  17.6329310  65.5829310
  64.9009310  17.3809310  66.3949310  61.7099310  17.6689310  71.6399310
  61.4499310  16.8929310  71.1429310  62.6659310  17.6739310  71.5919310
  61.7989310  17.5699310  71.5699310  64.8269310  21.2669310  61.7539310
  64.6059310  21.0169310  62.6519310  65.6429310  20.8009310  61.5709310
  64.9029310  21.1749310  61.8459310  62.6729310  31.0299310  56.9009310
  62.2729310  31.8979310  56.9509310  62.1969310  30.5089310  57.5479310
  62.5609310  31.0749310  56.9899310  58.6299310  19.8169310  66.9209310
  57.7789310  19.3859310  66.8339310  58.7289310  19.9639310  67.8619310
  58.5329310  19.7809310  67.0299310  56.0519310  29.3509310  62.7569310
  55.4159310  28.8959310  63.3079310  55.5639310  30.0849310  62.3839310
  55.9089310  29.3869310  62.7799310  61.9299310  31.0219310  70.9619310
  61.7269310  30.7119310  71.8439310  62.4439310  30.3139310  70.5719310
  61.9699310  30.8909310  71.0249310  67.5179310  21.2909310  59.5899310
  66.6949310  20.8039310  59.5419310  67.2659310  22.1549310  59.9179310
  67.3809310  21.3389310  59.6259310  64.5749310  28.6239310  73.6089310
  63.9349310  28.0909310  74.0809310  64.5369310  28.3009310  72.7079310
  64.4879310  28.5139310  73.5539310  58.3419310  30.9919310  73.7439310
  57.9549310  30.6269310  72.9479310  57.6939310  31.6209310  74.0589310
  58.2089310  31.0249310  73.6829310  50.7019310  30.3459310  71.1129310
  50.3199310  31.1889310  71.3569310  51.5259310  30.5719310  70.6819310
  50.7579310  30.4829310  71.0889310  52.6049310  19.9719310  66.5349310
  52.5109310  19.5049310  65.7049310  53.4279310  19.6489310  66.8999310
  52.6979310  19.8709310  66.4759310  67.2419310  26.4609310  71.4259310
  66.3509310  26.6769310  71.7039310  67.5189310  27.2139310  70.9039310
  67.1629310  26.5849310  71.3949310  66.3099310  28.4829310  61.8579310
  66.3319310  28.5989310  62.8079310  66.4829310  29.3559310  61.5069310
  66.3349310  28.6099310  61.9349310  65.6849310  34.4229310  62.1649310
  65.4209310  34.3879310  61.2459310  66.3069310  33.7019310  62.2639310
  65.7309310  34.3259310  62.0599310  62.8589310  34.4189310  59.6759310
  62.3429310  33.7339310  60.1019310  62.3759310  35.2259310  59.8499310
  62.7309310  34.4339310  59.7529310  54.7679310  19.2299310  67.7909310
  55.2199310  18.6509310  68.4049310  55.3309310  19.2449310  67.0179310
  54.8979310  19.1579310  67.7709310  51.3499310  22.3299310  72.0599310
  50.7839310  22.6909310  71.3779310  50.8539310  22.4459310  72.8699310
  51.2139310  22.3909310  72.0759310  62.5959310  35.9619310  67.9769310
  63.3709310  35.8059310  67.4379310  62.5649310  36.9129310  68.0829310
  62.6909310  36.0639310  67.9219310  59.1659310  32.3739310  62.2059310
  58.9279310  31.5609310  62.6499310  58.3609310  32.6519310  61.7689310
  59.0329310  32.3059310  62.2069310  64.3589310  31.7939310  73.5129310
  64.6289310  30.8899310  73.6729310  63.4069310  31.7809310  73.6139310
  64.2719310  31.6769310  73.5469310  64.6689310  27.4999310  71.2099310
  64.0589310  26.7639310  71.2659310  64.2369310  28.1239310  70.6269310
  64.5359310  27.4849310  71.1429310  53.7669310  28.0879310  69.6349310
  53.3059310  28.4319310  68.8699310  53.8479310  27.1499310  69.4629310
  53.7179310  28.0119310  69.5149310  51.9629310  25.7289310  61.8199310
  52.9189310  25.7609310  61.8469310  51.6919310  26.6459310  61.8579310
  52.0509310  25.8499310  61.8279310  53.3219310  19.0189310  59.7909310
  53.6299310  19.0839310  60.6949310  52.4039310  18.7609310  59.8699310
  53.2439310  18.9939310  59.9169310  62.6309310  23.2799310  62.1749310
  63.2509310  23.7239310  61.5959310  61.8209310  23.7839310  62.0899310
  62.6069310  23.4019310  62.0899310  49.2509310  29.3319310  58.1359310
  49.8789310  28.8089310  58.6349310  49.7449310  29.6379310  57.3749310
  49.3949310  29.3039310  58.1029310  54.9229310  31.4159310  61.4069310
  54.2229310  31.8139310  60.8899310  55.3549310  30.8129310  60.8009310
  54.8889310  31.3899310  61.2629310  63.5239310  29.3589310  69.2289310
  63.3509310  29.2819310  68.2909310  64.3069310  29.9059310  69.2839310
  63.6019310  29.4189310  69.1159310  58.3419310  25.7429310  63.5479310
  58.8559310  25.1429310  63.0079310  58.0679310  26.4329310  62.9439310
  58.3719310  25.7539310  63.4019310  65.3699310  34.3099310  72.8389310
  65.7789310  34.4819310  73.6869310  65.1009310  33.3929310  72.8839310
  65.3879310  34.2149310  72.9529310  64.3839310  18.9719310  71.1069310
  64.0969310  19.7979310  71.4979310  64.1609310  19.0559310  70.1799310
  64.3179310  19.0889310  71.0389310  68.0369310  33.6019310  59.8369310
  68.6239310  33.4249310  59.1019310  67.4459310  34.2819310  59.5129310
  68.0359310  33.6659310  59.7009310  50.8289310  33.0979310  57.5939310
  51.3859310  32.3389310  57.7659310  51.3969310  33.8519310  57.7499310
  50.9729310  33.0969310  57.6359310  68.3989310  20.3079310  63.5929310
  68.9809310  20.7929310  63.0069310  67.8329310  20.9779310  63.9759310
  68.4009310  20.4559310  63.5669310  56.1179310  19.1269310  65.4589310
  55.9399310  19.7169310  64.7269310  56.6029310  18.3999310  65.0689310
  56.1569310  19.1099310  65.3159310  49.7229310  25.7169310  64.0359310
  50.3199310  25.9729310  63.3319310  50.0259310  26.2119310  64.7979310
  49.8379310  25.8129310  64.0429310  52.4039310  29.2239310  67.8409310
  52.6629310  29.9169310  67.2329310  51.5319310  29.4829310  68.1399310
  52.3259310  29.3459310  67.8009310  66.0919310  26.8139310  64.8219310
  66.9449310  26.4729310  64.5519310  66.1139310  26.7849310  65.7779310
  66.2039310  26.7659310  64.9089310  59.0219310  23.7249310  72.7269310
  58.2679310  23.3949310  72.2379310  58.8209310  23.5269310  73.6409310
  58.8999310  23.6569310  72.7809310  68.1679310  16.8399310  64.3299310
  67.5719310  16.4899310  64.9919310  68.8859310  16.2079310  64.2949310
  68.1839310  16.7149310  64.4099310  64.2379310  27.4849310  60.0369310
  64.6339310  27.8259310  60.8389310  64.7289310  27.9039310  59.3299310
  64.3509310  27.5819310  60.0489310  63.9669310  21.5709310  71.9989310
  64.6599310  21.7649310  72.6309310  63.3309310  22.2769310  72.1169310
  63.9739310  21.6859310  72.0949310  64.4319310  33.8409310  69.4739310
  63.9589310  34.6739310  69.4669310  63.9009310  33.2599310  68.9299310
  64.3029310  33.8729310  69.4039310  56.5439310  18.5119310  51.4579310
  56.7719310  18.4839310  52.3869310  55.9149310  17.7999310  51.3449310
  56.4929310  18.4169310  51.5629310  53.9429310  32.6979310  51.7179310
  52.9889310  32.6299310  51.6859310  54.1319310  33.0049310  52.6039310
  53.8449310  32.7289310  51.8269310  58.7079310  30.1419310  44.8809310
  58.5339310  30.3029310  45.8089310  57.9429310  29.6559310  44.5749310
  58.5879310  30.0999310  44.9609310  54.4599310  16.7979310  50.9639310
  53.8999310  17.2459310  51.5979310  54.3139310  15.8669310  51.1309310
  54.3699310  16.7359310  51.0659310  55.2789310  25.0389310  40.2119310
  55.1249310  25.4959310  41.0389310  55.9909310  24.4289310  40.4039310
  55.3499310  25.0189310  40.3419310  58.6739310  20.2479310  50.8169310
  58.0709310  19.6069310  51.1919310  59.4629310  20.1789310  51.3549310
  58.6979310  20.1579310  50.9339310  59.2119310  16.6849310  57.0949310
  60.1039310  16.4559310  56.8309310  58.6899310  16.5639310  56.3019310
  59.2599310  16.6409310  56.9599310  65.4399310  31.1979310  38.3979310
  64.5779310  31.5259310  38.1419310  65.3439310  30.2459310  38.3969310
  65.3169310  31.1179310  38.3649310  56.8769310  33.0849310  41.8639310
  56.0779310  32.5579310  41.8739310  57.2209310  32.9819310  40.9769310
  56.8189310  33.0039310  41.7519310  61.0969310  20.0739310  52.0849310
  61.2749310  19.1919310  52.4109310  61.4159310  20.6539310  52.7769310
  61.1609310  20.0349310  52.2159310  60.7849310  28.0699310  44.3309310
  60.3589310  27.4629310  43.7269310  60.1219310  28.7369310  44.5089310
  60.6459310  28.0779310  44.2769310  66.5369310  18.7019310  43.5839310
  66.6049310  17.7549310  43.4599310  67.4059310  18.9669310  43.8849310
  66.6569310  18.6149310  43.6069310  67.6559310  22.9929310  45.4249310
  66.8769310  23.1029310  45.9699310  67.9999310  23.8789310  45.3159310
  67.5999310  23.1199310  45.4809310  58.7519310  19.1209310  39.5729310
  58.4859310  18.6579310  40.3679310  58.7679310  18.4439310  38.8969310
  58.7199310  18.9749310  39.5889310  58.9869310  26.3089310  52.8569310
  58.8589310  25.4439310  53.2459310  59.4299310  26.1339310  52.0259310
  59.0269310  26.1759310  52.7999310  61.8629310  27.2609310  39.8759310
  62.6329310  27.2819310  40.4429310  62.1819310  26.8939310  39.0519310
  62.0019310  27.2169310  39.8429310  67.5989310  26.8979310  41.6059310
  67.2329310  27.5389310  42.2159310  66.8339310  26.4759310  41.2139310
  67.4539310  26.9259310  41.6339310  50.1109310  20.6389310  51.4139310
  50.3879310  21.2079310  52.1319310  49.5089310  20.0159310  51.8209310
  50.0699310  20.6319310  51.5579310  65.5809310  28.4979310  38.6229310
  65.6229310  28.3639310  37.6759310  66.4669310  28.7649310  38.8659310
  65.6999310  28.5149310  38.5329310  50.9839310  26.9759310  54.0069310
  50.0629310  26.7559310  53.8669310  51.0639310  27.0829310  54.9539310
  50.8759310  26.9609310  54.1099310  65.9239310  18.9279310  40.7109310
  66.0559310  18.7839310  41.6479310  65.0559310  19.3269310  40.6509310
  65.8299310  18.9599310  40.8239310  62.5739310  30.6649310  45.2119310
  62.7499310  31.5149310  44.8089310  61.8149310  30.3279310  44.7379310
  62.4999310  30.7309310  45.0999310  62.3639310  33.9899310  46.4639310
  62.9499310  34.7269310  46.2889310  61.5819310  34.1759310  45.9449310
  62.3389310  34.1079310  46.3749310  54.6859310  21.2449310  44.9839310
  54.2789310  21.2439310  44.1169310  54.1999310  21.9079310  45.4749310
  54.5719310  21.3299310  44.9359310  52.8049310  17.6409310  53.0019310
  53.0119310  18.5389310  53.2589310  52.4489310  17.2399310  53.7949310
  52.7859310  17.7039310  53.1359310  54.1129310  18.4319310  43.7019310
  53.3549310  18.4189310  44.2869310  54.6449310  17.6879310  43.9829310
  54.0839310  18.3349310  43.8129310  61.1529310  22.1299310  54.0009310
  61.7389310  22.4429310  54.6899310  60.4269310  22.7549310  54.0009310
  61.1349310  22.2499310  54.0889310  58.7729310  22.6309310  43.5329310
  57.9479310  22.6129310  43.0479310  58.5219310  22.4449310  44.4379310
  58.6349310  22.6049310  43.5869310  55.8869310  32.2959310  48.1499310
  55.6259310  31.9209310  48.9909310  56.6179310  31.7509310  47.8609310
  55.9469310  32.1779310  48.2199310  54.1249310  30.4889310  46.8649310
  53.4009310  30.7919310  46.3169310  54.7189310  31.2389310  46.9129310
  54.1089310  30.6239310  46.8009310  50.6739310  20.6429310  57.0549310
  50.4759310  20.7239310  56.1229310  49.8799310  20.9459310  57.4959310
  50.5469310  20.6919310  56.9919310  53.5979310  24.2529310  38.2029310
  52.9949310  24.9899310  38.1069310  54.2269310  24.5429310  38.8639310
  53.6009310  24.3839310  38.2749310  58.0249310  32.7149310  39.4959310
  58.4839310  31.8929310  39.6679310  58.7229310  33.3549310  39.3569310
  58.1729310  32.6919310  39.4999310  56.7479310  23.2059310  48.4779310
  57.6289310  23.4979310  48.7099310  56.8339310  22.8719310  47.5849310
  56.8719310  23.2009310  48.3929310  50.6419310  29.6689310  55.8119310
  49.8799310  30.2369310  55.6949310  50.8469310  29.3589310  54.9299310
  50.5699310  29.7019310  55.6839310  52.7129310  30.9639310  57.1489310
  53.1959310  31.5249310  56.5419310  52.2699310  30.3279310  56.5879310
  52.7179310  30.9549310  56.9999310  56.3389310  32.6999310  55.9469310
  56.9129310  32.6129310  56.7079310  56.2969310  33.6419310  55.7849310
  56.4069310  32.8089310  56.0229310  61.0449310  19.0249310  46.6619310
  60.0929310  18.9619310  46.7329310  61.3729310  18.2969310  47.1899310
  60.9649310  18.9239310  46.7389310  66.1739310  27.0329310  48.7839310
  66.6139310  27.5399310  49.4669310  65.5019310  26.5359310  49.2499310
  66.1449310  27.0339310  48.9309310  67.3889310  28.8009310  51.0119310
  66.6749310  29.4059310  50.8129310  68.1049310  29.3639310  51.3089310
  67.3899310  28.9499310  51.0249310  56.6939310  26.5539310  55.8479310
  56.5369310  25.6099310  55.8119310  56.6049310  26.8459310  54.9409310
  56.6619310  26.4699310  55.7269310  60.9009310  29.8619310  39.9499310
  61.2049310  28.9689310  40.1059310  61.4279310  30.4019310  40.5389310
  61.0069310  29.8169310  40.0449310  63.5239310  20.3499310  40.5259310
  63.6279310  20.6939310  41.4129310  63.3939310  21.1259310  39.9809310
  63.5209310  20.4929310  40.5699310  66.1659310  21.1979310  47.8529310
  67.0779310  21.2089310  48.1459310  66.1659310  20.6129310  47.0949310
  66.2829310  21.1239310  47.7939310  64.0109310  25.5349310  49.7039310
  63.1359310  25.2779310  49.4139310  64.3629310  24.7519310  50.1279310
  63.9439310  25.4019310  49.7209310  53.7199310  32.4509310  54.8619310
  53.4679310  33.3549310  55.0529310  54.6249310  32.3859310  55.1649310
  53.8039310  32.5589310  54.9249310  55.7529310  17.5239310  38.5129310
  56.0949310  17.5329310  39.4069310  55.2679310  18.3459310  38.4349310
  55.7349310  17.6309310  38.6169310  50.9219310  17.4399310  48.4169310
  51.7559310  17.8939310  48.2929310  50.3339310  17.8389310  47.7769310
  50.9539310  17.5489310  48.3199310  52.0209310  16.5729310  55.4289310
  51.1879310  16.1459310  55.6299310  51.9879310  17.3999310  55.9089310
  51.9099310  16.6239310  55.5159310  58.3559310  22.0349310  46.1669310
  58.4419310  21.2509310  46.7099310  58.7959310  22.7219310  46.6669310
  58.4229310  22.0229310  46.2999310  67.0179310  19.6529310  55.5069310
  66.1189310  19.3249310  55.5019310  67.3429310  19.4759310  54.6249310
  66.9439310  19.5879310  55.3939310  67.0339310  30.7749310  41.5029310
  67.1549310  31.6499310  41.1349310  67.2429310  30.1809310  40.7819310
  67.0759310  30.8109310  41.3629310  65.4519310  16.1739310  40.3809310
  65.5799310  17.0889310  40.1289310  64.5029310  16.0789310  40.4659310
  65.3469310  16.2789310  40.3599310  51.4309310  34.2569310  42.6859310
  50.6499310  34.1259310  42.1479310  51.4009310  35.1819310  42.9299310
  51.3269310  34.3589310  42.6479310  61.4819310  30.0589310  54.6369310
  62.0639310  29.8949310  55.3779310  60.8889310  30.7449310  54.9449310
  61.4799310  30.1259310  54.7709310  57.7839310  30.5229310  47.3759310
  57.3039310  29.7149310  47.5529310  58.5139310  30.5089310  47.9949310
  57.8159310  30.4179310  47.4779310  68.6269310  17.5119310  38.3819310
  68.4509310  18.3529310  37.9609310  67.8179310  17.0129310  38.2679310
  68.5009310  17.5559310  38.3139310  71.1959310  23.4399310  45.7599310
  71.2099310  23.1269310  46.6649310  71.1469310  24.3929310  45.8369310
  71.1919310  23.5219310  45.8859310  60.5889310  21.3759310  39.6429310
  59.9629310  20.6519310  39.6669310  60.8069310  21.5349310  40.5609310
  60.5369310  21.3039310  39.7629310  57.3269310  23.0239310  51.7629310
  56.4819310  22.7039310  52.0799310  57.7999310  22.2329310  51.5039310
  57.2789310  22.8819310  51.7709310  54.2539310  28.2099310  56.0969310
  55.0649310  27.7219310  55.9549310  53.9849310  28.4869310  55.2209310
  54.3229310  28.1829310  55.9659310  67.0549310  18.8909310  52.9379310
  66.1889310  18.7269310  52.5669310  67.6369310  18.2989310  52.4599310
  67.0189310  18.7939310  52.8289310  66.7609310  24.3409310  39.6439310
  66.3039310  24.0999310  40.4499310  67.6869310  24.2009310  39.8429310
  66.8209310  24.2919310  39.7729310  56.5159310  27.2499310  53.1249310
  57.3959310  26.8769310  53.0729310  55.9779310  26.6689310  52.5879310
  56.5599310  27.1279310  53.0499310  65.5049310  30.9609310  51.4819310
  65.1539310  30.8579310  52.3669310  65.6529310  31.9029310  51.3919310
  65.4789310  31.0679310  51.5839310  67.6419310  32.7279310  53.3609310
  67.8399310  32.3329310  54.2109310  66.9709310  33.3829310  53.5519310
  67.5809310  32.7609310  53.4939310  64.8859310  20.0579310  45.2319310
  65.5819310  19.6719310  44.6989310  64.2759310  19.3359310  45.3869310
  64.8969310  19.9159310  45.1829310  62.9599310  25.5069310  52.7739310
  62.4029310  25.1129310  52.1019310  62.3839310  26.1169310  53.2339310
  62.8149310  25.5349310  52.7469310  66.8739310  24.7679310  55.9679310
  66.0509310  25.1079310  55.6189310  66.7299310  24.7119310  56.9129310
  66.7509310  24.8039310  56.0439310  60.7869310  21.4939310  42.3069310
  59.9639310  21.7769310  42.7029310  61.4649310  21.8799310  42.8619310
  60.7689310  21.5789310  42.4289310  53.7989310  25.0849310  50.3999310
  53.4219310  24.9579310  51.2699310  53.2359310  24.5739310  49.8179310
  53.6789310  25.0039310  50.4369310  62.8059310  26.5949310  45.8549310
  63.3509310  27.0959310  46.4619310  62.1119310  27.2019310  45.5979310
  62.7869310  26.7359310  45.8999310  65.5099310  23.8409310  42.0479310
  65.4669310  24.4599310  42.7779310  65.1439310  23.0299310  42.3999310
  65.4579310  23.8169310  42.1869310  60.2599310  24.7049310  42.5269310
  59.5879310  24.0239310  42.5569310  60.3389310  24.9219310  41.5979310
  60.1839310  24.6459310  42.4119310  53.9469310  19.5579310  56.4899310
  53.7939310  19.8379310  55.5879310  53.7099310  20.3179310  57.0209310
  53.8969310  19.6909310  56.4429310  61.4459310  33.6839310  51.6449310
  60.8969310  33.6149310  50.8649310  61.8099310  32.8069310  51.7609310
  61.4229310  33.5629310  51.5599310  55.8799310  23.6789310  55.5959310
  55.7649310  23.3949310  54.6889310  54.9889310  23.7819310  55.9289310
  55.7509310  23.6559310  55.5219310  54.9249310  22.0059310  50.4419310
  54.3349310  21.2669310  50.2899310  55.5369310  21.9779310  49.7069310
  54.9279310  21.9079310  50.3279310  56.3099310  28.1979310  48.4739310
  56.2699310  27.2429310  48.4369310  55.8549310  28.4259310  49.2839310
  56.2469310  28.1049310  48.5729310  64.2749310  24.8509310  55.1559310
  63.5839310  24.2109310  55.3239310  64.0669310  25.2069310  54.2929310
  64.1599310  24.8139310  55.0669310  52.2259310  28.3979310  44.4949310
  52.9049310  28.1179310  45.1089310  52.3239310  29.3479310  44.4459310
  52.3249310  28.4839310  44.5679310  57.6399310  27.1339310  39.5819310
  57.2569310  26.8249310  38.7609310  57.8789310  28.0449310  39.4069310
  57.6219310  27.2109310  39.4549310  51.8959310  18.5889310  45.2599310
  51.6579310  17.7699310  44.8259310  51.1349310  19.1569310  45.1329310
  51.7679310  18.5569310  45.1879310  56.4669310  17.4039310  41.2639310
  56.7119310  16.5289310  41.5649310  56.2519310  17.8809310  42.0649310
  56.4709310  17.3529310  41.4049310  61.6989310  19.1529310  43.8019310
  61.4049310  19.8679310  43.2379310  61.4279310  19.4139310  44.6819310
  61.6269310  19.2779310  43.8419310  60.1529310  30.8089310  48.8839310
  60.0889310  30.2889310  49.6859310  60.6979310  31.5579310  49.1269310
  60.2139310  30.8379310  49.0179310  65.6519310  29.7049310  45.5029310
  64.7369310  29.7149310  45.2199310  65.7739310  28.8369310  45.8879310
  65.5499310  29.5949310  45.5159310  53.3049310  21.6689310  39.2979310
  52.3799310  21.4259310  39.3359310  53.3009310  22.5889310  39.0329310
  53.1869310  21.7559310  39.2689310  55.2739310  26.0219310  42.5869310
  56.0969310  26.5079310  42.5489310  55.3249310  25.5269310  43.4039310
  55.3859310  26.0209310  42.6859310  57.5689310  27.6589310  42.5889310
  57.0459310  28.3619310  42.9749310  57.5809310  27.8549310  41.6529310
  57.5039310  27.7739310  42.5189310  64.6119310  22.5259310  38.7529310
  65.0899310  22.1729310  38.0039310  65.1139310  23.2979310  39.0159310
  64.7369310  22.5799310  38.6909310  53.5059310  27.9619310  53.5829310
  53.4679310  28.2789310  52.6809310  52.6339310  27.6029310  53.7479310
  53.3889310  27.9559310  53.4889310  57.4139310  29.7019310  52.1579310
  56.6309310  30.1079310  51.7889310  57.1259310  28.8309310  52.4309310
  57.2769310  29.6419310  52.1459310  66.4639310  13.6059310  48.1519310
  66.6099310  14.0109310  49.0069310  65.5189310  13.6739310  48.0129310
  66.3619310  13.6659310  48.2439310  56.4399310  25.6589310  50.6369310
  56.7649310  24.8559310  51.0439310  55.5709310  25.4269310  50.3109310
  56.3699310  25.5269310  50.6469310  52.0559310  26.5929310  56.6059310
  52.8589310  27.1029310  56.4959310  51.6059310  27.0109310  57.3399310
  52.1009310  26.7119310  56.6859310  62.5519310  23.7409310  45.8659310
  63.0499310  23.5339310  45.0749310  62.7359310  24.6659310  46.0299310
  62.6389310  23.8329310  45.7859310  57.1769310  22.4869310  39.6069310
  56.6959310  21.6699310  39.4759310  57.6109310  22.6459310  38.7689310
  57.1709310  22.4029310  39.4829310  51.1409310  27.5239310  40.0649310
  51.9079310  27.2009310  40.5399310  50.3989310  27.2849310  40.6199310
  51.1439310  27.4519310  40.1969310  67.2399310  34.5129310  47.9339310
  67.0929310  33.5699310  48.0149310  67.8939310  34.7109310  48.6049310
  67.3049310  34.4169310  48.0299310  68.5729310  30.7909310  46.7199310
  67.7289310  31.2039310  46.9039310  68.4409310  29.8689310  46.9379310
  68.4479310  30.7259310  46.7709310  50.4789310  21.2799310  48.7609310
  51.2769310  20.9299310  48.3659310  50.4589310  20.8999310  49.6389310
  50.5779310  21.1859310  48.8229310  59.8729310  24.3369310  46.4889310
  59.4659310  25.0969310  46.0729310  60.7349310  24.2719310  46.0789310
  59.9309310  24.4259310  46.3829310  64.4099310  25.5759310  43.9709310
  65.0839310  25.9879310  44.5109310  63.5999310  26.0219310  44.2169310
  64.3929310  25.6859310  44.0709310  52.5639310  26.0669310  47.4739310
  53.5209310  26.0509310  47.4549310  52.3189310  25.2529310  47.9139310
  52.6549310  25.9609310  47.5279310  62.8669310  20.0769310  50.0129310
  62.4129310  20.5189310  49.2949310  62.3249310  20.2519310  50.7819310
  62.7399310  20.1559310  50.0189310  68.0319310  25.0049310  48.9569310
  67.6429310  24.5309310  49.6929310  67.4969310  25.7939310  48.8709310
  67.9139310  25.0449310  49.0399310  61.4059310  21.5529310  47.8229310
  62.0319310  22.0029310  47.2559310  61.2639310  20.7059310  47.3989310
  61.4679310  21.5019310  47.6959310  59.9409310  29.4299310  51.3219310
  60.3339310  30.2509310  51.6179310  59.0279310  29.4849310  51.6039310
  59.8749310  29.5419310  51.3959310  61.4299310  18.2979310  40.5789310
  60.6709310  18.5459310  40.0509310  61.9849310  19.0779310  40.5799310
  61.4039310  18.4299310  40.5119310  53.9649310  21.5909310  42.2959310
  53.8749310  21.3199310  41.3829310  53.0669310  21.7479310  42.5889310
  53.8379310  21.5769310  42.2169310  63.5519310  17.4819310  45.0919310
  62.8899310  17.8879310  44.5319310  64.2469310  17.2189310  44.4889310
  63.5559310  17.5009310  44.9429310  65.1649310  22.7139310  50.4709310
  64.8999310  22.0619310  51.1209310  65.3839310  22.2009310  49.6929310
  65.1589310  22.5649310  50.4549310  55.9109310  24.5069310  44.6959310
  56.0989310  23.7549310  44.1339310  56.7669310  24.8979310  44.8659310
  56.0439310  24.4609310  44.6459310  57.5669310  19.3669310  53.9359310
  58.4889310  19.4429310  54.1799310  57.1149310  19.9839310  54.5109310
  57.6269310  19.4549310  54.0399310  54.5579310  16.3769310  46.8549310
  54.7289310  17.2979310  47.0539310  55.1239310  15.8929310  47.4559310
  54.6519310  16.4329310  46.9569310  58.3609310  29.7139310  38.9789310
  59.2049310  29.6759310  39.4299310  58.5839310  29.9189310  38.0709310
  58.4979310  29.7349310  38.9209310  55.4119310  25.5039310  47.2479310
  55.6689310  25.0859310  46.4259310  55.4959310  24.8119310  47.9039310
  55.4559310  25.3619310  47.2269310  62.7239310  29.9589310  47.7069310
  62.8219310  30.2059310  46.7869310  61.8699310  30.3089310  47.9589310
  62.6269310  30.0349310  47.6219310  60.1139310  34.3729310  45.0459310
  59.9289310  33.5459310  44.5999310  59.8019310  35.0459310  44.4409310
  60.0499310  34.3529310  44.9109310  66.2179310  16.2429310  56.6709310
  65.6769310  15.7279310  57.2689310  65.7539310  17.0759310  56.5839310
  66.0899310  16.2839310  56.7369310  61.7019310  33.6079310  38.1359310
  61.8599310  34.4469310  37.7029310  61.9639310  33.7549310  39.0449310
  61.7559310  33.7339310  38.1969310  63.8119310  32.3849310  48.2459310
  63.2679310  32.9849310  47.7349310  63.4209310  31.5239310  48.0999310
  63.6929310  32.3519310  48.1619310  67.5869310  23.7939310  51.8689310
  66.6909310  23.4689310  51.7819310  67.4869310  24.6889310  52.1939310
  67.4589310  23.8669310  51.8999310  57.9039310  34.7529310  47.2189310
  57.8699310  34.0659310  47.8839310  58.3799310  34.3579310  46.4889310
  57.9599310  34.6149310  47.2109310  59.7829310  25.4809310  39.9069310
  60.5129310  26.1009310  39.8959310  59.0009310  26.0319310  39.8759310
  59.7759310  25.6309310  39.9009310  59.4149310  22.8619310  49.0229310
  58.9659310  22.1079310  49.4049310  60.1369310  22.4819310  48.5229310
  59.4499310  22.7169310  49.0079310  60.9499310  26.9859310  50.7349310
  60.6739310  27.8099310  51.1369310  61.9009310  26.9729310  50.8439310
  61.0369310  27.0899310  50.7999310  56.4379310  19.5989310  43.0059310
  56.2899310  20.5419310  42.9279310  55.6459310  19.2669310  43.4299310
  56.3179310  19.6769310  43.0499310  60.3059310  34.2089310  48.9839310
  61.0959310  34.7469310  48.9299310  59.7059310  34.6009310  48.3499310
  60.3299310  34.3279310  48.8959310  60.0889310  19.9429310  55.4249310
  59.6229310  20.5409310  56.0089310  60.6839310  20.5069310  54.9299310
  60.1049310  20.0909310  55.4359310  55.6939310  20.0879310  39.6009310
  54.7769310  19.8729310  39.7669310  56.1689310  19.6999310  40.3359310
  55.6369310  20.0109310  39.7159310  52.3359310  24.8339310  52.8719310
  51.6569310  25.4729310  53.0919310  51.9269310  23.9849310  53.0349310
  52.1959310  24.8069310  52.9209310  63.2959310  32.8389310  43.8359310
  62.9279310  33.4199310  44.5009310  64.1869310  33.1619310  43.7019310
  63.3629310  32.9549310  43.9039310  50.4839310  17.7429310  51.4539310
  51.3459310  17.7039310  51.8679310  50.6699310  17.8929310  50.5269310
  50.6179310  17.7569310  51.3879310  61.4009310  25.2759310  48.8209310
  61.1329310  25.9189310  49.4779310  60.6019310  25.0939310  48.3249310
  61.2639310  25.3349310  48.8409310  49.9429310  22.9139310  55.4409310
  49.3429310  23.6469310  55.5819310  50.4899310  22.8969310  56.2269310
  49.9359310  23.0059310  55.5599310  51.2989310  21.8149310  43.4839310
  51.6989310  22.3999310  44.1279310  50.8349310  22.3999310  42.8849310
  51.2909310  21.9649310  43.4899310  61.3779310  23.6099310  51.3829310
  61.2149310  23.9189310  50.4919310  60.5169310  23.3459310  51.7059310
  61.2469310  23.6159310  51.3109310  61.5999310  17.8309310  55.5209310
  61.5969310  17.5409310  54.6089310  60.9279310  18.5119310  55.5579310
  61.5129310  17.8809310  55.4089310  53.2589310  16.4939310  39.5289310
  53.2599310  17.2359310  40.1329310  53.7629310  16.7979310  38.7749310
  53.3239310  16.6279310  39.5099310  54.1749310  28.5299310  39.8129310
  54.2609310  28.4789310  38.8609310  53.6219310  29.2979310  39.9619310
  54.1149310  28.6219310  39.7099310  61.3099310  27.2729310  53.9189310
  60.4919310  27.1169310  53.4479310  61.3579310  28.2249310  54.0079310
  61.2119310  27.3749310  53.8699310  65.6599310  21.9689310  55.1499310
  66.3729310  21.3369310  55.2449310  66.0999310  22.8059310  55.0039310
  65.8069310  21.9949310  55.1429310  51.6889310  23.7509310  48.6719310
  50.9099310  24.2569310  48.9029310  51.4269310  22.8379310  48.7949310
  51.5559310  23.6989310  48.7169310  67.1329310  33.2459310  50.7189310
  67.4149310  33.1499310  51.6289310  66.3519310  33.7969310  50.7679310
  67.0689310  33.3039310  50.8419310  54.7849310  27.9079310  45.7779310
  54.6979310  28.6879310  46.3269310  54.8569310  27.1839310  46.4009310
  54.7829310  27.9149310  45.9279310  50.4159310  18.9919310  40.9829310
  50.3589310  18.7379310  40.0619310  49.8679310  19.7739310  41.0509310
  50.3389310  19.0599310  40.8739310  54.8869310  23.0489310  52.9619310
  54.7959310  22.9289310  52.0169310  54.1629310  23.6269310  53.1999310
  54.7829310  23.1079310  52.8709310  55.9689310  16.5649310  44.4139310
  55.5639310  16.2339310  45.2159310  56.0759310  15.7909310  43.8619310
  55.9309310  16.4239310  44.4459310  67.0539310  32.0239310  44.1539310
  67.1239310  31.3949310  44.8709310  67.1199310  31.4919310  43.3609310
  67.0709310  31.8759310  44.1439310  56.5119310  22.6109310  42.2999310
  56.8849310  22.5459310  41.4209310  55.6069310  22.3149310  42.1989310
  56.4439310  22.5639310  42.1749310  58.6569310  19.5079310  44.6849310
  57.8049310  19.3699310  44.2729310  58.7069310  20.4549310  44.8209310
  58.5549310  19.6119310  44.6499310  53.5289310  20.1759310  53.8759310
  54.3199310  20.2089310  53.3389310  53.1689310  21.0619310  53.8279310
  53.5839310  20.2929310  53.8009310  59.7019310  23.1789310  37.9239310
  59.6829310  23.8289310  38.6259310  60.0569310  22.3909310  38.3359310
  59.7449310  23.1619310  38.0659310  64.6849310  18.4289310  55.3449310
  64.7459310  18.0819310  54.4549310  63.7449310  18.4769310  55.5189310
  64.5719310  18.3909310  55.2529310  55.0719310  30.4769310  50.7029310
  54.5019310  31.1639310  51.0499310  54.6199310  29.6609310  50.9169310
  54.9409310  30.4609310  50.7749310  61.6639310  32.0579310  41.7939310
  60.9789310  31.9859310  42.4589310  62.4619310  32.2359310  42.2909310
  61.6779310  32.0709310  41.9429310  59.3749310  17.6819310  42.7759310
  59.1499310  18.4669310  43.2749310  60.2739310  17.8339310  42.4839310
  59.4619310  17.8019310  42.8029310  64.8019310  17.4019310  47.6459310
  65.6729310  17.0089310  47.7029310  64.7029310  17.6329310  46.7229310
  64.9009310  17.3809310  47.5349310  61.7099310  17.6689310  52.7799310
  61.4499310  16.8929310  52.2829310  62.6659310  17.6739310  52.7319310
  61.7989310  17.5699310  52.7099310  64.8269310  21.2669310  42.8939310
  64.6059310  21.0169310  43.7919310  65.6429310  20.8009310  42.7109310
  64.9029310  21.1749310  42.9859310  62.6729310  31.0299310  38.0409310
  62.2729310  31.8979310  38.0909310  62.1969310  30.5089310  38.6879310
  62.5609310  31.0749310  38.1299310  58.6299310  19.8169310  48.0609310
  57.7789310  19.3859310  47.9739310  58.7289310  19.9639310  49.0019310
  58.5329310  19.7809310  48.1699310  57.2609310  16.8379310  55.2119310
  56.7079310  17.1489310  55.9279310  57.3219310  17.5839310  54.6149310
  57.1979310  16.9729310  55.2269310  56.0519310  29.3509310  43.8969310
  55.4159310  28.8959310  44.4479310  55.5639310  30.0849310  43.5239310
  55.9089310  29.3869310  43.9199310  61.9299310  31.0219310  52.1019310
  61.7269310  30.7119310  52.9839310  62.4439310  30.3139310  51.7119310
  61.9699310  30.8909310  52.1649310  67.5179310  21.2909310  40.7299310
  66.6949310  20.8039310  40.6819310  67.2659310  22.1549310  41.0579310
  67.3809310  21.3389310  40.7659310  64.5749310  28.6239310  54.7489310
  63.9349310  28.0909310  55.2209310  64.5369310  28.3009310  53.8479310
  64.4879310  28.5139310  54.6939310  58.3419310  30.9919310  54.8839310
  57.9549310  30.6269310  54.0879310  57.6939310  31.6209310  55.1989310
  58.2089310  31.0249310  54.8229310  50.7019310  30.3459310  52.2529310
  50.3199310  31.1889310  52.4969310  51.5259310  30.5719310  51.8219310
  50.7579310  30.4829310  52.2289310  52.6049310  19.9719310  47.6749310
  52.5109310  19.5049310  46.8449310  53.4279310  19.6489310  48.0399310
  52.6979310  19.8709310  47.6159310  67.2419310  26.4609310  52.5659310
  66.3509310  26.6769310  52.8439310  67.5189310  27.2139310  52.0439310
  67.1629310  26.5849310  52.5349310  66.3099310  28.4829310  42.9979310
  66.3319310  28.5989310  43.9479310  66.4829310  29.3559310  42.6469310
  66.3349310  28.6099310  43.0749310  65.6849310  34.4229310  43.3049310
  65.4209310  34.3879310  42.3859310  66.3069310  33.7019310  43.4039310
  65.7309310  34.3259310  43.1999310  62.8589310  34.4189310  40.8159310
  62.3429310  33.7339310  41.2419310  62.3759310  35.2259310  40.9899310
  62.7309310  34.4339310  40.8929310  54.7679310  19.2299310  48.9309310
  55.2199310  18.6509310  49.5449310  55.3309310  19.2449310  48.1579310
  54.8979310  19.1579310  48.9109310  51.3499310  22.3299310  53.1999310
  50.7839310  22.6909310  52.5179310  50.8539310  22.4459310  54.0099310
  51.2139310  22.3909310  53.2159310  62.5959310  35.9619310  49.1169310
  63.3709310  35.8059310  48.5779310  62.5649310  36.9129310  49.2229310
  62.6909310  36.0639310  49.0619310  59.1659310  32.3739310  43.3459310
  58.9279310  31.5609310  43.7899310  58.3609310  32.6519310  42.9089310
  59.0329310  32.3059310  43.3469310  64.3589310  31.7939310  54.6529310
  64.6289310  30.8899310  54.8129310  63.4069310  31.7809310  54.7539310
  64.2719310  31.6769310  54.6869310  64.6689310  27.4999310  52.3499310
  64.0589310  26.7639310  52.4059310  64.2369310  28.1239310  51.7669310
  64.5359310  27.4849310  52.2829310  53.7669310  28.0879310  50.7749310
  53.3059310  28.4319310  50.0099310  53.8479310  27.1499310  50.6029310
  53.7179310  28.0119310  50.6549310  51.9629310  25.7289310  42.9599310
  52.9189310  25.7609310  42.9869310  51.6919310  26.6459310  42.9979310
  52.0509310  25.8499310  42.9679310  56.8029310  21.1879310  55.9029310
  56.0379310  20.7909310  56.3209310  56.5489310  22.0989310  55.7549310
  56.6719310  21.2539310  55.9379310  53.3219310  19.0189310  40.9309310
  53.6299310  19.0839310  41.8349310  52.4039310  18.7609310  41.0099310
  53.2439310  18.9939310  41.0569310  62.6309310  23.2799310  43.3149310
  63.2509310  23.7239310  42.7359310  61.8209310  23.7839310  43.2299310
  62.6069310  23.4019310  43.2299310  49.2509310  29.3319310  39.2759310
  49.8789310  28.8089310  39.7749310  49.7449310  29.6379310  38.5149310
  49.3949310  29.3039310  39.2429310  54.9229310  31.4159310  42.5469310
  54.2229310  31.8139310  42.0299310  55.3549310  30.8129310  41.9409310
  54.8889310  31.3899310  42.4029310  63.5239310  29.3589310  50.3689310
  63.3509310  29.2819310  49.4309310  64.3069310  29.9059310  50.4239310
  63.6019310  29.4189310  50.2559310  58.3419310  25.7429310  44.6879310
  58.8559310  25.1429310  44.1479310  58.0679310  26.4329310  44.0839310
  58.3719310  25.7539310  44.5419310  65.3699310  34.3099310  53.9789310
  65.7789310  34.4819310  54.8269310  65.1009310  33.3929310  54.0239310
  65.3879310  34.2149310  54.0929310  64.3839310  18.9719310  52.2469310
  64.0969310  19.7979310  52.6379310  64.1609310  19.0559310  51.3199310
  64.3179310  19.0889310  52.1789310  68.0369310  33.6019310  40.9769310
  68.6239310  33.4249310  40.2419310  67.4459310  34.2819310  40.6529310
  68.0359310  33.6659310  40.8409310  50.8289310  33.0979310  38.7339310
  51.3859310  32.3389310  38.9059310  51.3969310  33.8519310  38.8899310
  50.9729310  33.0969310  38.7759310  67.8769310  31.9569310  55.9719310
  67.1049310  31.9879310  56.5359310  68.4939310  32.5669310  56.3779310
  67.8569310  32.0389310  56.0969310  68.3989310  20.3079310  44.7329310
  68.9809310  20.7929310  44.1469310  67.8329310  20.9779310  45.1159310
  68.4009310  20.4559310  44.7069310  62.7779310  27.0839310  56.0409310
  61.9669310  27.1219310  55.5339310  63.1419310  26.2209310  55.8459310
  62.7209310  26.9789310  55.9509310  56.1179310  19.1269310  46.5989310
  55.9399310  19.7169310  45.8669310  56.6029310  18.3999310  46.2089310
  56.1569310  19.1099310  46.4559310  52.4039310  29.2239310  48.9809310
  52.6629310  29.9169310  48.3729310  51.5319310  29.4829310  49.2799310
  52.3259310  29.3459310  48.9409310  66.0919310  26.8139310  45.9619310
  66.9449310  26.4729310  45.6919310  66.1139310  26.7849310  46.9179310
  66.2039310  26.7659310  46.0489310  59.0219310  23.7249310  53.8669310
  58.2679310  23.3949310  53.3779310  58.8209310  23.5269310  54.7809310
  58.8999310  23.6569310  53.9209310  62.5719310  23.0479310  55.9359310
  61.7879310  23.0089310  56.4839310  63.2089310  22.4969310  56.3899310
  62.5529310  22.9729310  56.0639310  68.1679310  16.8399310  45.4699310
  67.5719310  16.4899310  46.1319310  68.8859310  16.2079310  45.4349310
  68.1839310  16.7149310  45.5499310  64.2379310  27.4849310  41.1769310
  64.6339310  27.8259310  41.9789310  64.7289310  27.9039310  40.4699310
  64.3509310  27.5819310  41.1889310  63.9669310  21.5709310  53.1389310
  64.6599310  21.7649310  53.7709310  63.3309310  22.2769310  53.2569310
  63.9739310  21.6859310  53.2349310  64.4319310  33.8409310  50.6139310
  63.9589310  34.6739310  50.6069310  63.9009310  33.2599310  50.0699310
  64.3029310  33.8729310  50.5439310  56.5439310  18.5119310  32.5979310
  56.7719310  18.4839310  33.5269310  55.9149310  17.7999310  32.4849310
  56.4929310  18.4169310  32.7029310  54.4599310  16.7979310  32.1039310
  53.8999310  17.2459310  32.7379310  54.3139310  15.8669310  32.2709310
  54.3699310  16.7359310  32.2059310  55.2789310  25.0389310  21.3519310
  55.1249310  25.4959310  22.1789310  55.9909310  24.4289310  21.5439310
  55.3499310  25.0189310  21.4819310  58.6739310  20.2479310  31.9569310
  58.0709310  19.6069310  32.3319310  59.4629310  20.1789310  32.4949310
  58.6979310  20.1579310  32.0739310  59.2119310  16.6849310  38.2349310
  60.1039310  16.4559310  37.9709310  58.6899310  16.5639310  37.4419310
  59.2599310  16.6409310  38.0999310  65.4399310  31.1979310  19.5379310
  64.5779310  31.5259310  19.2819310  65.3439310  30.2459310  19.5369310
  65.3169310  31.1179310  19.5049310  52.1659310  31.2949310  26.3149310
  52.2039310  32.1879310  25.9709310  51.3669310  31.2739310  26.8409310
  52.0689310  31.4069310  26.3379310  61.0969310  20.0739310  33.2249310
  61.2749310  19.1919310  33.5509310  61.4159310  20.6539310  33.9169310
  61.1609310  20.0349310  33.3559310  60.7849310  28.0699310  25.4709310
  60.3589310  27.4629310  24.8669310  60.1219310  28.7369310  25.6489310
  60.6459310  28.0779310  25.4169310  66.5369310  18.7019310  24.7239310
  66.6049310  17.7549310  24.5999310  67.4059310  18.9669310  25.0249310
  66.6569310  18.6149310  24.7469310  67.6559310  22.9929310  26.5649310
  66.8769310  23.1029310  27.1099310  67.9999310  23.8789310  26.4559310
  67.5999310  23.1199310  26.6209310  58.7519310  19.1209310  20.7129310
  58.4859310  18.6579310  21.5079310  58.7679310  18.4439310  20.0369310
  58.7199310  18.9749310  20.7289310  58.9869310  26.3089310  33.9969310
  58.8589310  25.4439310  34.3859310  59.4299310  26.1339310  33.1659310
  59.0269310  26.1759310  33.9399310  61.8629310  27.2609310  21.0159310
  62.6329310  27.2819310  21.5829310  62.1819310  26.8939310  20.1919310
  62.0019310  27.2169310  20.9829310  67.5989310  26.8979310  22.7459310
  67.2329310  27.5389310  23.3559310  66.8339310  26.4759310  22.3539310
  67.4539310  26.9259310  22.7739310  50.1109310  20.6389310  32.5539310
  50.3879310  21.2079310  33.2719310  49.5089310  20.0159310  32.9609310
  50.0699310  20.6319310  32.6979310  65.5809310  28.4979310  19.7629310
  65.6229310  28.3639310  18.8159310  66.4669310  28.7649310  20.0059310
  65.6999310  28.5149310  19.6729310  50.9839310  26.9759310  35.1469310
  50.0629310  26.7559310  35.0069310  51.0639310  27.0829310  36.0939310
  50.8759310  26.9609310  35.2499310  65.9239310  18.9279310  21.8509310
  66.0559310  18.7839310  22.7879310  65.0559310  19.3269310  21.7909310
  65.8299310  18.9599310  21.9639310  62.5739310  30.6649310  26.3519310
  62.7499310  31.5149310  25.9489310  61.8149310  30.3279310  25.8779310
  62.4999310  30.7309310  26.2399310  62.3639310  33.9899310  27.6039310
  62.9499310  34.7269310  27.4289310  61.5819310  34.1759310  27.0849310
  62.3389310  34.1079310  27.5149310  54.6859310  21.2449310  26.1239310
  54.2789310  21.2439310  25.2569310  54.1999310  21.9079310  26.6149310
  54.5719310  21.3299310  26.0759310  52.8049310  17.6409310  34.1419310
  53.0119310  18.5389310  34.3989310  52.4489310  17.2399310  34.9349310
  52.7859310  17.7039310  34.2759310  54.1129310  18.4319310  24.8419310
  53.3549310  18.4189310  25.4269310  54.6449310  17.6879310  25.1229310
  54.0839310  18.3349310  24.9529310  61.1529310  22.1299310  35.1409310
  61.7389310  22.4429310  35.8299310  60.4269310  22.7549310  35.1409310
  61.1349310  22.2499310  35.2289310  58.7729310  22.6309310  24.6729310
  57.9479310  22.6129310  24.1879310  58.5219310  22.4449310  25.5779310
  58.6349310  22.6049310  24.7269310  50.6739310  20.6429310  38.1949310
  50.4759310  20.7239310  37.2629310  49.8799310  20.9459310  38.6359310
  50.5469310  20.6919310  38.1319310  53.5979310  24.2529310  19.3429310
  52.9949310  24.9899310  19.2469310  54.2269310  24.5429310  20.0039310
  53.6009310  24.3839310  19.4149310  56.7479310  23.2059310  29.6179310
  57.6289310  23.4979310  29.8499310  56.8339310  22.8719310  28.7249310
  56.8719310  23.2009310  29.5329310  50.6419310  29.6689310  36.9519310
  49.8799310  30.2369310  36.8349310  50.8469310  29.3589310  36.0699310
  50.5699310  29.7019310  36.8239310  52.7129310  30.9639310  38.2889310
  53.1959310  31.5249310  37.6819310  52.2699310  30.3279310  37.7279310
  52.7179310  30.9549310  38.1399310  61.0449310  19.0249310  27.8019310
  60.0929310  18.9619310  27.8729310  61.3729310  18.2969310  28.3299310
  60.9649310  18.9239310  27.8789310  66.1739310  27.0329310  29.9239310
  66.6139310  27.5399310  30.6069310  65.5019310  26.5359310  30.3899310
  66.1449310  27.0339310  30.0709310  67.3889310  28.8009310  32.1519310
  66.6749310  29.4059310  31.9529310  68.1049310  29.3639310  32.4489310
  67.3899310  28.9499310  32.1649310  56.6939310  26.5539310  36.9879310
  56.5369310  25.6099310  36.9519310  56.6049310  26.8459310  36.0809310
  56.6619310  26.4699310  36.8669310  63.5239310  20.3499310  21.6659310
  63.6279310  20.6939310  22.5529310  63.3939310  21.1259310  21.1209310
  63.5209310  20.4929310  21.7099310  66.1659310  21.1979310  28.9929310
  67.0779310  21.2089310  29.2859310  66.1659310  20.6129310  28.2349310
  66.2829310  21.1239310  28.9339310  64.0109310  25.5349310  30.8439310
  63.1359310  25.2779310  30.5539310  64.3629310  24.7519310  31.2679310
  63.9439310  25.4019310  30.8609310  55.7529310  17.5239310  19.6529310
  56.0949310  17.5329310  20.5469310  55.2679310  18.3459310  19.5749310
  55.7349310  17.6309310  19.7569310  50.9219310  17.4399310  29.5569310
  51.7559310  17.8939310  29.4329310  50.3339310  17.8389310  28.9169310
  50.9539310  17.5489310  29.4599310  52.0209310  16.5729310  36.5689310
  51.1879310  16.1459310  36.7699310  51.9879310  17.3999310  37.0489310
  51.9099310  16.6239310  36.6559310  58.3559310  22.0349310  27.3069310
  58.4419310  21.2509310  27.8499310  58.7959310  22.7219310  27.8069310
  58.4229310  22.0229310  27.4399310  67.0179310  19.6529310  36.6469310
  66.1189310  19.3249310  36.6419310  67.3429310  19.4759310  35.7649310
  66.9439310  19.5879310  36.5339310  67.0339310  30.7749310  22.6429310
  67.1549310  31.6499310  22.2749310  67.2429310  30.1809310  21.9219310
  67.0759310  30.8109310  22.5029310  65.4519310  16.1739310  21.5209310
  65.5799310  17.0889310  21.2689310  64.5029310  16.0789310  21.6059310
  65.3469310  16.2789310  21.4999310  61.4819310  30.0589310  35.7769310
  62.0639310  29.8949310  36.5179310  60.8889310  30.7449310  36.0849310
  61.4799310  30.1259310  35.9109310  68.6269310  17.5119310  19.5219310
  68.4509310  18.3529310  19.1009310  67.8179310  17.0129310  19.4079310
  68.5009310  17.5559310  19.4539310  71.1959310  23.4399310  26.8999310
  71.2099310  23.1269310  27.8049310  71.1469310  24.3929310  26.9769310
  71.1919310  23.5219310  27.0259310  60.5889310  21.3759310  20.7829310
  59.9629310  20.6519310  20.8069310  60.8069310  21.5349310  21.7009310
  60.5369310  21.3039310  20.9029310  57.3269310  23.0239310  32.9029310
  56.4819310  22.7039310  33.2199310  57.7999310  22.2329310  32.6439310
  57.2789310  22.8819310  32.9109310  54.2539310  28.2099310  37.2369310
  55.0649310  27.7219310  37.0949310  53.9849310  28.4869310  36.3609310
  54.3229310  28.1829310  37.1059310  67.0549310  18.8909310  34.0779310
  66.1889310  18.7269310  33.7069310  67.6369310  18.2989310  33.5999310
  67.0189310  18.7939310  33.9689310  66.7609310  24.3409310  20.7839310
  66.3039310  24.0999310  21.5899310  67.6869310  24.2009310  20.9829310
  66.8209310  24.2919310  20.9129310  56.5159310  27.2499310  34.2649310
  57.3959310  26.8769310  34.2129310  55.9779310  26.6689310  33.7279310
  56.5599310  27.1279310  34.1899310  65.5049310  30.9609310  32.6219310
  65.1539310  30.8579310  33.5069310  65.6529310  31.9029310  32.5319310
  65.4789310  31.0679310  32.7239310  67.6419310  32.7279310  34.5009310
  67.8399310  32.3329310  35.3509310  66.9709310  33.3829310  34.6919310
  67.5809310  32.7609310  34.6339310  64.8859310  20.0579310  26.3719310
  65.5819310  19.6719310  25.8389310  64.2759310  19.3359310  26.5269310
  64.8969310  19.9159310  26.3229310  62.9599310  25.5069310  33.9139310
  62.4029310  25.1129310  33.2419310  62.3839310  26.1169310  34.3739310
  62.8149310  25.5349310  33.8869310  66.8739310  24.7679310  37.1079310
  66.0509310  25.1079310  36.7589310  66.7299310  24.7119310  38.0529310
  66.7509310  24.8039310  37.1839310  60.7869310  21.4939310  23.4469310
  59.9639310  21.7769310  23.8429310  61.4649310  21.8799310  24.0019310
  60.7689310  21.5789310  23.5689310  53.7989310  25.0849310  31.5399310
  53.4219310  24.9579310  32.4099310  53.2359310  24.5739310  30.9579310
  53.6789310  25.0039310  31.5769310  62.8059310  26.5949310  26.9949310
  63.3509310  27.0959310  27.6019310  62.1119310  27.2019310  26.7379310
  62.7869310  26.7359310  27.0399310  50.7889310  28.1609310  27.8159310
  51.1829310  28.0909310  26.9459310  51.4009310  27.7059310  28.3929310
  50.9179310  28.0939310  27.7779310  65.5099310  23.8409310  23.1879310
  65.4669310  24.4599310  23.9179310  65.1439310  23.0299310  23.5399310
  65.4579310  23.8169310  23.3269310  60.2599310  24.7049310  23.6669310
  59.5879310  24.0239310  23.6969310  60.3389310  24.9219310  22.7379310
  60.1839310  24.6459310  23.5519310  53.9469310  19.5579310  37.6299310
  53.7939310  19.8379310  36.7279310  53.7099310  20.3179310  38.1609310
  53.8969310  19.6909310  37.5829310  61.4459310  33.6839310  32.7849310
  60.8969310  33.6149310  32.0049310  61.8099310  32.8069310  32.9009310
  61.4229310  33.5629310  32.6999310  55.8799310  23.6789310  36.7359310
  55.7649310  23.3949310  35.8289310  54.9889310  23.7819310  37.0689310
  55.7509310  23.6559310  36.6619310  54.9249310  22.0059310  31.5819310
  54.3349310  21.2669310  31.4299310  55.5369310  21.9779310  30.8469310
  54.9279310  21.9079310  31.4679310  64.2749310  24.8509310  36.2959310
  63.5839310  24.2109310  36.4639310  64.0669310  25.2069310  35.4329310
  64.1599310  24.8139310  36.2069310  49.8929310  23.9529310  23.4329310
  50.5579310  24.5529310  23.7709310  49.0609310  24.3869310  23.6219310
  49.8719310  24.0849310  23.5009310  52.2259310  28.3979310  25.6349310
  52.9049310  28.1179310  26.2489310  52.3239310  29.3479310  25.5859310
  52.3249310  28.4839310  25.7079310  57.6399310  27.1339310  20.7219310
  57.2569310  26.8249310  19.9009310  57.8789310  28.0449310  20.5469310
  57.6219310  27.2109310  20.5949310  51.8959310  18.5889310  26.3999310
  51.6579310  17.7699310  25.9659310  51.1349310  19.1569310  26.2729310
  51.7679310  18.5569310  26.3279310  56.4669310  17.4039310  22.4039310
  56.7119310  16.5289310  22.7049310  56.2519310  17.8809310  23.2049310
  56.4709310  17.3529310  22.5449310  61.6989310  19.1529310  24.9419310
  61.4049310  19.8679310  24.3779310  61.4279310  19.4139310  25.8219310
  61.6269310  19.2779310  24.9819310  65.6519310  29.7049310  26.6429310
  64.7369310  29.7149310  26.3599310  65.7739310  28.8369310  27.0279310
  65.5499310  29.5949310  26.6559310  53.3049310  21.6689310  20.4379310
  52.3799310  21.4259310  20.4759310  53.3009310  22.5889310  20.1729310
  53.1869310  21.7559310  20.4089310  55.2739310  26.0219310  23.7269310
  56.0969310  26.5079310  23.6889310  55.3249310  25.5269310  24.5439310
  55.3859310  26.0209310  23.8259310  57.5689310  27.6589310  23.7289310
  57.0459310  28.3619310  24.1149310  57.5809310  27.8549310  22.7929310
  57.5039310  27.7739310  23.6589310  64.6119310  22.5259310  19.8929310
  65.0899310  22.1729310  19.1439310  65.1139310  23.2979310  20.1559310
  64.7369310  22.5799310  19.8309310  53.5059310  27.9619310  34.7229310
  53.4679310  28.2789310  33.8209310  52.6339310  27.6029310  34.8879310
  53.3889310  27.9559310  34.6289310  66.4639310  13.6059310  29.2919310
  66.6099310  14.0109310  30.1469310  65.5189310  13.6739310  29.1529310
  66.3619310  13.6659310  29.3839310  52.0559310  26.5929310  37.7459310
  52.8589310  27.1029310  37.6359310  51.6059310  27.0109310  38.4799310
  52.1009310  26.7119310  37.8259310  62.5519310  23.7409310  27.0059310
  63.0499310  23.5339310  26.2149310  62.7359310  24.6659310  27.1699310
  62.6389310  23.8329310  26.9259310  57.1769310  22.4869310  20.7469310
  56.6959310  21.6699310  20.6159310  57.6109310  22.6459310  19.9089310
  57.1709310  22.4029310  20.6229310  51.1409310  27.5239310  21.2049310
  51.9079310  27.2009310  21.6799310  50.3989310  27.2849310  21.7599310
  51.1439310  27.4519310  21.3369310  67.2399310  34.5129310  29.0739310
  67.0929310  33.5699310  29.1549310  67.8939310  34.7109310  29.7449310
  67.3049310  34.4169310  29.1699310  68.5729310  30.7909310  27.8599310
  67.7289310  31.2039310  28.0439310  68.4409310  29.8689310  28.0779310
  68.4479310  30.7259310  27.9109310  50.4789310  21.2799310  29.9009310
  51.2769310  20.9299310  29.5059310  50.4589310  20.8999310  30.7789310
  50.5779310  21.1859310  29.9629310  59.8729310  24.3369310  27.6289310
  59.4659310  25.0969310  27.2129310  60.7349310  24.2719310  27.2189310
  59.9309310  24.4259310  27.5229310  64.4099310  25.5759310  25.1109310
  65.0839310  25.9879310  25.6509310  63.5999310  26.0219310  25.3569310
  64.3929310  25.6859310  25.2109310  52.5639310  26.0669310  28.6139310
  53.5209310  26.0509310  28.5949310  52.3189310  25.2529310  29.0539310
  52.6549310  25.9609310  28.6679310  62.8669310  20.0769310  31.1529310
  62.4129310  20.5189310  30.4349310  62.3249310  20.2519310  31.9219310
  62.7399310  20.1559310  31.1589310  68.0319310  25.0049310  30.0969310
  67.6429310  24.5309310  30.8329310  67.4969310  25.7939310  30.0109310
  67.9139310  25.0449310  30.1799310  61.4059310  21.5529310  28.9629310
  62.0319310  22.0029310  28.3959310  61.2639310  20.7059310  28.5389310
  61.4679310  21.5019310  28.8359310  59.9409310  29.4299310  32.4619310
  60.3339310  30.2509310  32.7579310  59.0279310  29.4849310  32.7439310
  59.8749310  29.5419310  32.5359310  61.4299310  18.2979310  21.7189310
  60.6709310  18.5459310  21.1909310  61.9849310  19.0779310  21.7199310
  61.4039310  18.4299310  21.6519310  53.9649310  21.5909310  23.4359310
  53.8749310  21.3199310  22.5229310  53.0669310  21.7479310  23.7289310
  53.8379310  21.5769310  23.3569310  63.5519310  17.4819310  26.2319310
  62.8899310  17.8879310  25.6719310  64.2469310  17.2189310  25.6289310
  63.5559310  17.5009310  26.0829310  65.1649310  22.7139310  31.6109310
  64.8999310  22.0619310  32.2609310  65.3839310  22.2009310  30.8329310
  65.1589310  22.5649310  31.5949310  55.9109310  24.5069310  25.8359310
  56.0989310  23.7549310  25.2739310  56.7669310  24.8979310  26.0059310
  56.0439310  24.4609310  25.7859310  57.5669310  19.3669310  35.0759310
  58.4889310  19.4429310  35.3199310  57.1149310  19.9839310  35.6509310
  57.6269310  19.4549310  35.1799310  54.5579310  16.3769310  27.9949310
  54.7289310  17.2979310  28.1939310  55.1239310  15.8929310  28.5959310
  54.6519310  16.4329310  28.0969310  55.4119310  25.5039310  28.3879310
  55.6689310  25.0859310  27.5659310  55.4959310  24.8119310  29.0439310
  55.4559310  25.3619310  28.3669310  62.7239310  29.9589310  28.8469310
  62.8219310  30.2059310  27.9269310  61.8699310  30.3089310  29.0989310
  62.6269310  30.0349310  28.7619310  66.2179310  16.2429310  37.8109310
  65.6769310  15.7279310  38.4089310  65.7539310  17.0759310  37.7239310
  66.0899310  16.2839310  37.8769310  61.7019310  33.6079310  19.2759310
  61.8599310  34.4469310  18.8429310  61.9639310  33.7549310  20.1849310
  61.7559310  33.7339310  19.3369310  63.8119310  32.3849310  29.3859310
  63.2679310  32.9849310  28.8749310  63.4209310  31.5239310  29.2399310
  63.6929310  32.3519310  29.3019310  67.5869310  23.7939310  33.0089310
  66.6909310  23.4689310  32.9219310  67.4869310  24.6889310  33.3339310
  67.4589310  23.8669310  33.0399310  59.7829310  25.4809310  21.0469310
  60.5129310  26.1009310  21.0359310  59.0009310  26.0319310  21.0159310
  59.7759310  25.6309310  21.0409310  59.4149310  22.8619310  30.1629310
  58.9659310  22.1079310  30.5449310  60.1369310  22.4819310  29.6629310
  59.4499310  22.7169310  30.1479310  60.9499310  26.9859310  31.8749310
  60.6739310  27.8099310  32.2769310  61.9009310  26.9729310  31.9839310
  61.0369310  27.0899310  31.9399310  56.4379310  19.5989310  24.1459310
  56.2899310  20.5419310  24.0679310  55.6459310  19.2669310  24.5699310
  56.3179310  19.6769310  24.1899310  60.0889310  19.9429310  36.5649310
  59.6229310  20.5409310  37.1489310  60.6839310  20.5069310  36.0699310
  60.1049310  20.0909310  36.5759310  55.6939310  20.0879310  20.7409310
  54.7769310  19.8729310  20.9069310  56.1689310  19.6999310  21.4759310
  55.6369310  20.0109310  20.8559310  52.3359310  24.8339310  34.0119310
  51.6569310  25.4729310  34.2319310  51.9269310  23.9849310  34.1749310
  52.1959310  24.8069310  34.0609310  63.2959310  32.8389310  24.9759310
  62.9279310  33.4199310  25.6409310  64.1869310  33.1619310  24.8419310
  63.3629310  32.9549310  25.0439310  50.4839310  17.7429310  32.5939310
  51.3459310  17.7039310  33.0079310  50.6699310  17.8929310  31.6669310
  50.6179310  17.7569310  32.5279310  61.4009310  25.2759310  29.9609310
  61.1329310  25.9189310  30.6179310  60.6019310  25.0939310  29.4649310
  61.2639310  25.3349310  29.9809310  49.9429310  22.9139310  36.5809310
  49.3429310  23.6469310  36.7219310  50.4899310  22.8969310  37.3669310
  49.9359310  23.0059310  36.6999310  51.2989310  21.8149310  24.6239310
  51.6989310  22.3999310  25.2679310  50.8349310  22.3999310  24.0249310
  51.2909310  21.9649310  24.6299310  61.3779310  23.6099310  32.5229310
  61.2149310  23.9189310  31.6319310  60.5169310  23.3459310  32.8459310
  61.2469310  23.6159310  32.4509310  61.5999310  17.8309310  36.6609310
  61.5969310  17.5409310  35.7489310  60.9279310  18.5119310  36.6979310
  61.5129310  17.8809310  36.5489310  53.2589310  16.4939310  20.6689310
  53.2599310  17.2359310  21.2729310  53.7629310  16.7979310  19.9149310
  53.3239310  16.6279310  20.6499310  54.1749310  28.5299310  20.9529310
  54.2609310  28.4789310  20.0009310  53.6219310  29.2979310  21.1019310
  54.1149310  28.6219310  20.8499310  61.3099310  27.2729310  35.0589310
  60.4919310  27.1169310  34.5879310  61.3579310  28.2249310  35.1479310
  61.2119310  27.3749310  35.0099310  65.6599310  21.9689310  36.2899310
  66.3729310  21.3369310  36.3849310  66.0999310  22.8059310  36.1439310
  65.8069310  21.9949310  36.2829310  51.6889310  23.7509310  29.8119310
  50.9099310  24.2569310  30.0429310  51.4269310  22.8379310  29.9349310
  51.5559310  23.6989310  29.8569310  67.1329310  33.2459310  31.8589310
  67.4149310  33.1499310  32.7689310  66.3519310  33.7969310  31.9079310
  67.0689310  33.3039310  31.9819310  54.7849310  27.9079310  26.9179310
  54.6979310  28.6879310  27.4669310  54.8569310  27.1839310  27.5409310
  54.7829310  27.9149310  27.0679310  50.4159310  18.9919310  22.1229310
  50.3589310  18.7379310  21.2019310  49.8679310  19.7739310  22.1909310
  50.3389310  19.0599310  22.0139310  54.8869310  23.0489310  34.1019310
  54.7959310  22.9289310  33.1569310  54.1629310  23.6269310  34.3399310
  54.7829310  23.1079310  34.0109310  55.9689310  16.5649310  25.5539310
  55.5639310  16.2339310  26.3559310  56.0759310  15.7909310  25.0019310
  55.9309310  16.4239310  25.5859310  67.0539310  32.0239310  25.2939310
  67.1239310  31.3949310  26.0109310  67.1199310  31.4919310  24.5009310
  67.0709310  31.8759310  25.2839310  56.5119310  22.6109310  23.4399310
  56.8849310  22.5459310  22.5609310  55.6069310  22.3149310  23.3389310
  56.4439310  22.5639310  23.3149310  58.6569310  19.5079310  25.8249310
  57.8049310  19.3699310  25.4129310  58.7069310  20.4549310  25.9609310
  58.5549310  19.6119310  25.7899310  53.5289310  20.1759310  35.0159310
  54.3199310  20.2089310  34.4789310  53.1689310  21.0619310  34.9679310
  53.5839310  20.2929310  34.9409310  59.7019310  23.1789310  19.0639310
  59.6829310  23.8289310  19.7659310  60.0569310  22.3909310  19.4759310
  59.7449310  23.1619310  19.2059310  64.6849310  18.4289310  36.4849310
  64.7459310  18.0819310  35.5949310  63.7449310  18.4769310  36.6589310
  64.5719310  18.3909310  36.3929310  59.3749310  17.6819310  23.9159310
  59.1499310  18.4669310  24.4149310  60.2739310  17.8339310  23.6239310
  59.4619310  17.8019310  23.9429310  64.8019310  17.4019310  28.7859310
  65.6729310  17.0089310  28.8429310  64.7029310  17.6329310  27.8629310
  64.9009310  17.3809310  28.6749310  61.7099310  17.6689310  33.9199310
  61.4499310  16.8929310  33.4229310  62.6659310  17.6739310  33.8719310
  61.7989310  17.5699310  33.8499310  64.8269310  21.2669310  24.0339310
  64.6059310  21.0169310  24.9319310  65.6429310  20.8009310  23.8509310
  64.9029310  21.1749310  24.1259310  58.6299310  19.8169310  29.2009310
  57.7789310  19.3859310  29.1139310  58.7289310  19.9639310  30.1419310
  58.5329310  19.7809310  29.3099310  57.2609310  16.8379310  36.3519310
  56.7079310  17.1489310  37.0679310  57.3219310  17.5839310  35.7549310
  57.1979310  16.9729310  36.3669310  61.9299310  31.0219310  33.2419310
  61.7269310  30.7119310  34.1239310  62.4439310  30.3139310  32.8519310
  61.9699310  30.8909310  33.3049310  67.5179310  21.2909310  21.8699310
  66.6949310  20.8039310  21.8219310  67.2659310  22.1549310  22.1979310
  67.3809310  21.3389310  21.9059310  64.5749310  28.6239310  35.8889310
  63.9349310  28.0909310  36.3609310  64.5369310  28.3009310  34.9879310
  64.4879310  28.5139310  35.8339310  50.7019310  30.3459310  33.3929310
  50.3199310  31.1889310  33.6369310  51.5259310  30.5719310  32.9619310
  50.7579310  30.4829310  33.3689310  52.6049310  19.9719310  28.8149310
  52.5109310  19.5049310  27.9849310  53.4279310  19.6489310  29.1799310
  52.6979310  19.8709310  28.7559310  67.2419310  26.4609310  33.7059310
  66.3509310  26.6769310  33.9839310  67.5189310  27.2139310  33.1839310
  67.1629310  26.5849310  33.6749310  66.3099310  28.4829310  24.1379310
  66.3319310  28.5989310  25.0879310  66.4829310  29.3559310  23.7869310
  66.3349310  28.6099310  24.2149310  65.6849310  34.4229310  24.4449310
  65.4209310  34.3879310  23.5259310  66.3069310  33.7019310  24.5439310
  65.7309310  34.3259310  24.3399310  62.8589310  34.4189310  21.9559310
  62.3429310  33.7339310  22.3819310  62.3759310  35.2259310  22.1299310
  62.7309310  34.4339310  22.0329310  54.7679310  19.2299310  30.0709310
  55.2199310  18.6509310  30.6849310  55.3309310  19.2449310  29.2979310
  54.8979310  19.1579310  30.0509310  51.3499310  22.3299310  34.3399310
  50.7839310  22.6909310  33.6579310  50.8539310  22.4459310  35.1499310
  51.2139310  22.3909310  34.3559310  64.3589310  31.7939310  35.7929310
  64.6289310  30.8899310  35.9529310  63.4069310  31.7809310  35.8939310
  64.2719310  31.6769310  35.8269310  64.6689310  27.4999310  33.4899310
  64.0589310  26.7639310  33.5459310  64.2369310  28.1239310  32.9069310
  64.5359310  27.4849310  33.4229310  53.7669310  28.0879310  31.9149310
  53.3059310  28.4319310  31.1499310  53.8479310  27.1499310  31.7429310
  53.7179310  28.0119310  31.7949310  51.9629310  25.7289310  24.0999310
  52.9189310  25.7609310  24.1269310  51.6919310  26.6459310  24.1379310
  52.0509310  25.8499310  24.1079310  56.8029310  21.1879310  37.0429310
  56.0379310  20.7909310  37.4609310  56.5489310  22.0989310  36.8949310
  56.6719310  21.2539310  37.0779310  53.3219310  19.0189310  22.0709310
  53.6299310  19.0839310  22.9749310  52.4039310  18.7609310  22.1499310
  53.2439310  18.9939310  22.1969310  62.6309310  23.2799310  24.4549310
  63.2509310  23.7239310  23.8759310  61.8209310  23.7839310  24.3699310
  62.6069310  23.4019310  24.3699310  49.2509310  29.3319310  20.4159310
  49.8789310  28.8089310  20.9149310  49.7449310  29.6379310  19.6549310
  49.3949310  29.3039310  20.3829310  63.5239310  29.3589310  31.5089310
  63.3509310  29.2819310  30.5709310  64.3069310  29.9059310  31.5639310
  63.6019310  29.4189310  31.3959310  58.3419310  25.7429310  25.8279310
  58.8559310  25.1429310  25.2879310  58.0679310  26.4329310  25.2239310
  58.3719310  25.7539310  25.6819310  65.3699310  34.3099310  35.1189310
  65.7789310  34.4819310  35.9669310  65.1009310  33.3929310  35.1639310
  65.3879310  34.2149310  35.2329310  64.3839310  18.9719310  33.3869310
  64.0969310  19.7979310  33.7779310  64.1609310  19.0559310  32.4599310
  64.3179310  19.0889310  33.3189310  68.0369310  33.6019310  22.1169310
  68.6239310  33.4249310  21.3819310  67.4459310  34.2819310  21.7929310
  68.0359310  33.6659310  21.9809310  67.8769310  31.9569310  37.1119310
  67.1049310  31.9879310  37.6759310  68.4939310  32.5669310  37.5179310
  67.8569310  32.0389310  37.2369310  68.3989310  20.3079310  25.8729310
  68.9809310  20.7929310  25.2869310  67.8329310  20.9779310  26.2559310
  68.4009310  20.4559310  25.8469310  62.7779310  27.0839310  37.1809310
  61.9669310  27.1219310  36.6739310  63.1419310  26.2209310  36.9859310
  62.7209310  26.9789310  37.0909310  56.1179310  19.1269310  27.7389310
  55.9399310  19.7169310  27.0069310  56.6029310  18.3999310  27.3489310
  56.1569310  19.1099310  27.5959310  49.7229310  25.7169310  26.3159310
  50.3199310  25.9729310  25.6119310  50.0259310  26.2119310  27.0779310
  49.8379310  25.8129310  26.3229310  52.4039310  29.2239310  30.1209310
  52.6629310  29.9169310  29.5129310  51.5319310  29.4829310  30.4199310
  52.3259310  29.3459310  30.0809310  66.0919310  26.8139310  27.1019310
  66.9449310  26.4729310  26.8319310  66.1139310  26.7849310  28.0579310
  66.2039310  26.7659310  27.1889310  59.0219310  23.7249310  35.0069310
  58.2679310  23.3949310  34.5179310  58.8209310  23.5269310  35.9209310
  58.8999310  23.6569310  35.0609310  62.5719310  23.0479310  37.0759310
  61.7879310  23.0089310  37.6239310  63.2089310  22.4969310  37.5299310
  62.5529310  22.9729310  37.2039310  68.1679310  16.8399310  26.6099310
  67.5719310  16.4899310  27.2719310  68.8859310  16.2079310  26.5749310
  68.1839310  16.7149310  26.6899310  64.2379310  27.4849310  22.3169310
  64.6339310  27.8259310  23.1189310  64.7289310  27.9039310  21.6099310
  64.3509310  27.5819310  22.3289310  63.9669310  21.5709310  34.2789310
  64.6599310  21.7649310  34.9109310  63.3309310  22.2769310  34.3969310
  63.9739310  21.6859310  34.3749310  64.4319310  33.8409310  31.7539310
  63.9589310  34.6739310  31.7469310  63.9009310  33.2599310  31.2099310
  64.3029310  33.8729310  31.6839310  56.5439310  18.5119310  13.7379310
  56.7719310  18.4839310  14.6669310  55.9149310  17.7999310  13.6249310
  56.4929310  18.4169310  13.8429310  53.9429310  32.6979310  13.9979310
  52.9889310  32.6299310  13.9659310  54.1319310  33.0049310  14.8839310
  53.8449310  32.7289310  14.1069310  58.7079310  30.1419310   7.1609310
  58.5339310  30.3029310   8.0889310  57.9429310  29.6559310   6.8549310
  58.5879310  30.0999310   7.2409310  54.4599310  16.7979310  13.2439310
  53.8999310  17.2459310  13.8779310  54.3139310  15.8669310  13.4109310
  54.3699310  16.7359310  13.3459310  55.2789310  25.0389310   2.4919310
  55.1249310  25.4959310   3.3189310  55.9909310  24.4289310   2.6839310
  55.3499310  25.0189310   2.6219310  58.6739310  20.2479310  13.0969310
  58.0709310  19.6069310  13.4719310  59.4629310  20.1789310  13.6349310
  58.6979310  20.1579310  13.2139310  59.2119310  16.6849310  19.3749310
  60.1039310  16.4559310  19.1109310  58.6899310  16.5639310  18.5819310
  59.2599310  16.6409310  19.2399310  52.1659310  31.2949310   7.4549310
  52.2039310  32.1879310   7.1109310  51.3669310  31.2739310   7.9809310
  52.0689310  31.4069310   7.4779310  56.8769310  33.0849310   4.1439310
  56.0779310  32.5579310   4.1539310  57.2209310  32.9819310   3.2569310
  56.8189310  33.0039310   4.0319310  61.0969310  20.0739310  14.3649310
  61.2749310  19.1919310  14.6909310  61.4159310  20.6539310  15.0569310
  61.1609310  20.0349310  14.4959310  60.7849310  28.0699310   6.6109310
  60.3589310  27.4629310   6.0069310  60.1219310  28.7369310   6.7889310
  60.6459310  28.0779310   6.5569310  66.5369310  18.7019310   5.8639310
  66.6049310  17.7549310   5.7399310  67.4059310  18.9669310   6.1649310
  66.6569310  18.6149310   5.8869310  67.6559310  22.9929310   7.7049310
  66.8769310  23.1029310   8.2499310  67.9999310  23.8789310   7.5959310
  67.5999310  23.1199310   7.7609310  58.9869310  26.3089310  15.1369310
  58.8589310  25.4439310  15.5259310  59.4299310  26.1339310  14.3059310
  59.0269310  26.1759310  15.0799310  67.5989310  26.8979310   3.8859310
  67.2329310  27.5389310   4.4959310  66.8339310  26.4759310   3.4939310
  67.4539310  26.9259310   3.9139310  50.1109310  20.6389310  13.6939310
  50.3879310  21.2079310  14.4119310  49.5089310  20.0159310  14.1009310
  50.0699310  20.6319310  13.8379310  50.9839310  26.9759310  16.2869310
  50.0629310  26.7559310  16.1469310  51.0639310  27.0829310  17.2339310
  50.8759310  26.9609310  16.3899310  65.9239310  18.9279310   2.9909310
  66.0559310  18.7839310   3.9279310  65.0559310  19.3269310   2.9309310
  65.8299310  18.9599310   3.1039310  62.5739310  30.6649310   7.4919310
  62.7499310  31.5149310   7.0889310  61.8149310  30.3279310   7.0179310
  62.4999310  30.7309310   7.3799310  62.3639310  33.9899310   8.7439310
  62.9499310  34.7269310   8.5689310  61.5819310  34.1759310   8.2249310
  62.3389310  34.1079310   8.6549310  54.6859310  21.2449310   7.2639310
  54.2789310  21.2439310   6.3969310  54.1999310  21.9079310   7.7549310
  54.5719310  21.3299310   7.2159310  52.8049310  17.6409310  15.2819310
  53.0119310  18.5389310  15.5389310  52.4489310  17.2399310  16.0749310
  52.7859310  17.7039310  15.4159310  54.1129310  18.4319310   5.9819310
  53.3549310  18.4189310   6.5669310  54.6449310  17.6879310   6.2629310
  54.0839310  18.3349310   6.0929310  61.1529310  22.1299310  16.2809310
  61.7389310  22.4429310  16.9699310  60.4269310  22.7549310  16.2809310
  61.1349310  22.2499310  16.3689310  58.7729310  22.6309310   5.8129310
  57.9479310  22.6129310   5.3279310  58.5219310  22.4449310   6.7179310
  58.6349310  22.6049310   5.8669310  55.8869310  32.2959310  10.4299310
  55.6259310  31.9209310  11.2709310  56.6179310  31.7509310  10.1409310
  55.9469310  32.1779310  10.4999310  54.1249310  30.4889310   9.1449310
  53.4009310  30.7919310   8.5969310  54.7189310  31.2389310   9.1929310
  54.1089310  30.6239310   9.0809310  50.6739310  20.6429310  19.3349310
  50.4759310  20.7239310  18.4029310  49.8799310  20.9459310  19.7759310
  50.5469310  20.6919310  19.2719310  58.0249310  32.7149310   1.7759310
  58.4839310  31.8929310   1.9479310  58.7229310  33.3549310   1.6369310
  58.1729310  32.6919310   1.7799310  56.7479310  23.2059310  10.7579310
  57.6289310  23.4979310  10.9899310  56.8339310  22.8719310   9.8649310
  56.8719310  23.2009310  10.6729310  50.6419310  29.6689310  18.0919310
  49.8799310  30.2369310  17.9749310  50.8469310  29.3589310  17.2099310
  50.5699310  29.7019310  17.9639310  52.7129310  30.9639310  19.4289310
  53.1959310  31.5249310  18.8219310  52.2699310  30.3279310  18.8679310
  52.7179310  30.9549310  19.2799310  61.0449310  19.0249310   8.9419310
  60.0929310  18.9619310   9.0129310  61.3729310  18.2969310   9.4699310
  60.9649310  18.9239310   9.0189310  66.1739310  27.0329310  11.0639310
  66.6139310  27.5399310  11.7469310  65.5019310  26.5359310  11.5299310
  66.1449310  27.0339310  11.2109310  67.3889310  28.8009310  13.2919310
  66.6749310  29.4059310  13.0929310  68.1049310  29.3639310  13.5889310
  67.3899310  28.9499310  13.3049310  56.6939310  26.5539310  18.1279310
  56.5369310  25.6099310  18.0919310  56.6049310  26.8459310  17.2209310
  56.6619310  26.4699310  18.0069310  60.9009310  29.8619310   2.2299310
  61.2049310  28.9689310   2.3859310  61.4279310  30.4019310   2.8189310
  61.0069310  29.8169310   2.3249310  63.5239310  20.3499310   2.8059310
  63.6279310  20.6939310   3.6929310  63.3939310  21.1259310   2.2609310
  63.5209310  20.4929310   2.8499310  66.1659310  21.1979310  10.1329310
  67.0779310  21.2089310  10.4259310  66.1659310  20.6129310   9.3749310
  66.2829310  21.1239310  10.0739310  64.0109310  25.5349310  11.9839310
  63.1359310  25.2779310  11.6939310  64.3629310  24.7519310  12.4079310
  63.9439310  25.4019310  12.0009310  53.7199310  32.4509310  17.1419310
  53.4679310  33.3549310  17.3329310  54.6249310  32.3859310  17.4449310
  53.8039310  32.5589310  17.2049310  50.9219310  17.4399310  10.6969310
  51.7559310  17.8939310  10.5729310  50.3339310  17.8389310  10.0569310
  50.9539310  17.5489310  10.5999310  52.0209310  16.5729310  17.7089310
  51.1879310  16.1459310  17.9099310  51.9879310  17.3999310  18.1889310
  51.9099310  16.6239310  17.7959310  58.3559310  22.0349310   8.4469310
  58.4419310  21.2509310   8.9899310  58.7959310  22.7219310   8.9469310
  58.4229310  22.0229310   8.5799310  67.0179310  19.6529310  17.7869310
  66.1189310  19.3249310  17.7819310  67.3429310  19.4759310  16.9049310
  66.9439310  19.5879310  17.6739310  67.0339310  30.7749310   3.7829310
  67.1549310  31.6499310   3.4149310  67.2429310  30.1809310   3.0619310
  67.0759310  30.8109310   3.6429310  65.4519310  16.1739310   2.6609310
  65.5799310  17.0889310   2.4089310  64.5029310  16.0789310   2.7459310
  65.3469310  16.2789310   2.6399310  51.4309310  34.2569310   4.9659310
  50.6499310  34.1259310   4.4279310  51.4009310  35.1819310   5.2099310
  51.3269310  34.3589310   4.9279310  61.4819310  30.0589310  16.9169310
  62.0639310  29.8949310  17.6579310  60.8889310  30.7449310  17.2249310
  61.4799310  30.1259310  17.0509310  57.7839310  30.5229310   9.6559310
  57.3039310  29.7149310   9.8329310  58.5139310  30.5089310  10.2749310
  57.8159310  30.4179310   9.7579310  71.1959310  23.4399310   8.0399310
  71.2099310  23.1269310   8.9449310  71.1469310  24.3929310   8.1169310
  71.1919310  23.5219310   8.1659310  60.5889310  21.3759310   1.9229310
  59.9629310  20.6519310   1.9469310  60.8069310  21.5349310   2.8409310
  60.5369310  21.3039310   2.0429310  57.3269310  23.0239310  14.0429310
  56.4819310  22.7039310  14.3599310  57.7999310  22.2329310  13.7839310
  57.2789310  22.8819310  14.0509310  54.2539310  28.2099310  18.3769310
  55.0649310  27.7219310  18.2349310  53.9849310  28.4869310  17.5009310
  54.3229310  28.1829310  18.2459310  53.1619310  32.7819310   3.4999310
  52.5799310  33.2799310   4.0729310  53.3909310  33.3929310   2.7999310
  53.1169310  32.9239310   3.4839310  67.0549310  18.8909310  15.2179310
  66.1889310  18.7269310  14.8469310  67.6369310  18.2989310  14.7399310
  67.0189310  18.7939310  15.1089310  66.7609310  24.3409310   1.9239310
  66.3039310  24.0999310   2.7299310  67.6869310  24.2009310   2.1229310
  66.8209310  24.2919310   2.0529310  56.5159310  27.2499310  15.4049310
  57.3959310  26.8769310  15.3529310  55.9779310  26.6689310  14.8679310
  56.5599310  27.1279310  15.3299310  65.5049310  30.9609310  13.7619310
  65.1539310  30.8579310  14.6469310  65.6529310  31.9029310  13.6719310
  65.4789310  31.0679310  13.8639310  67.6419310  32.7279310  15.6409310
  67.8399310  32.3329310  16.4909310  66.9709310  33.3829310  15.8319310
  67.5809310  32.7609310  15.7739310  64.8859310  20.0579310   7.5119310
  65.5819310  19.6719310   6.9789310  64.2759310  19.3359310   7.6669310
  64.8969310  19.9159310   7.4629310  62.9599310  25.5069310  15.0539310
  62.4029310  25.1129310  14.3819310  62.3839310  26.1169310  15.5139310
  62.8149310  25.5349310  15.0269310  66.8739310  24.7679310  18.2479310
  66.0509310  25.1079310  17.8989310  66.7299310  24.7119310  19.1929310
  66.7509310  24.8039310  18.3239310  60.7869310  21.4939310   4.5869310
  59.9639310  21.7769310   4.9829310  61.4649310  21.8799310   5.1419310
  60.7689310  21.5789310   4.7089310  53.7989310  25.0849310  12.6799310
  53.4219310  24.9579310  13.5499310  53.2359310  24.5739310  12.0979310
  53.6789310  25.0039310  12.7169310  62.8059310  26.5949310   8.1349310
  63.3509310  27.0959310   8.7419310  62.1119310  27.2019310   7.8779310
  62.7869310  26.7359310   8.1799310  50.7889310  28.1609310   8.9559310
  51.1829310  28.0909310   8.0859310  51.4009310  27.7059310   9.5329310
  50.9179310  28.0939310   8.9179310  65.5099310  23.8409310   4.3279310
  65.4669310  24.4599310   5.0579310  65.1439310  23.0299310   4.6799310
  65.4579310  23.8169310   4.4669310  60.2599310  24.7049310   4.8069310
  59.5879310  24.0239310   4.8369310  60.3389310  24.9219310   3.8779310
  60.1839310  24.6459310   4.6919310  53.9469310  19.5579310  18.7699310
  53.7939310  19.8379310  17.8679310  53.7099310  20.3179310  19.3009310
  53.8969310  19.6909310  18.7229310  61.4459310  33.6839310  13.9249310
  60.8969310  33.6149310  13.1449310  61.8099310  32.8069310  14.0409310
  61.4229310  33.5629310  13.8399310  55.8799310  23.6789310  17.8759310
  55.7649310  23.3949310  16.9689310  54.9889310  23.7819310  18.2089310
  55.7509310  23.6559310  17.8019310  54.9249310  22.0059310  12.7219310
  54.3349310  21.2669310  12.5699310  55.5369310  21.9779310  11.9869310
  54.9279310  21.9079310  12.6079310  56.3099310  28.1979310  10.7539310
  56.2699310  27.2429310  10.7169310  55.8549310  28.4259310  11.5639310
  56.2469310  28.1049310  10.8529310  64.2749310  24.8509310  17.4359310
  63.5839310  24.2109310  17.6039310  64.0669310  25.2069310  16.5729310
  64.1599310  24.8139310  17.3469310  49.8929310  23.9529310   4.5729310
  50.5579310  24.5529310   4.9109310  49.0609310  24.3869310   4.7619310
  49.8719310  24.0849310   4.6409310  52.2259310  28.3979310   6.7749310
  52.9049310  28.1179310   7.3889310  52.3239310  29.3479310   6.7259310
  52.3249310  28.4839310   6.8479310  51.8959310  18.5889310   7.5399310
  51.6579310  17.7699310   7.1059310  51.1349310  19.1569310   7.4129310
  51.7679310  18.5569310   7.4679310  56.4669310  17.4039310   3.5439310
  56.7119310  16.5289310   3.8449310  56.2519310  17.8809310   4.3449310
  56.4709310  17.3529310   3.6849310  61.6989310  19.1529310   6.0819310
  61.4049310  19.8679310   5.5179310  61.4279310  19.4139310   6.9619310
  61.6269310  19.2779310   6.1219310  60.1529310  30.8089310  11.1639310
  60.0889310  30.2889310  11.9659310  60.6979310  31.5579310  11.4069310
  60.2139310  30.8379310  11.2979310  65.6519310  29.7049310   7.7829310
  64.7369310  29.7149310   7.4999310  65.7739310  28.8369310   8.1679310
  65.5499310  29.5949310   7.7959310  55.2739310  26.0219310   4.8669310
  56.0969310  26.5079310   4.8289310  55.3249310  25.5269310   5.6839310
  55.3859310  26.0209310   4.9659310  51.9649310  33.8969310   8.9429310
  51.4229310  34.3199310   9.6099310  52.8639310  34.0939310   9.2049310
  52.0099310  33.9769310   9.0619310  57.5689310  27.6589310   4.8689310
  57.0459310  28.3619310   5.2549310  57.5809310  27.8549310   3.9329310
  57.5039310  27.7739310   4.7989310  53.5059310  27.9619310  15.8629310
  53.4679310  28.2789310  14.9609310  52.6339310  27.6029310  16.0279310
  53.3889310  27.9559310  15.7689310  57.4139310  29.7019310  14.4379310
  56.6309310  30.1079310  14.0689310  57.1259310  28.8309310  14.7109310
  57.2769310  29.6419310  14.4259310  51.1519310  31.7139310  11.1809310
  51.8069310  32.0749310  10.5839310  50.4739310  31.3589310  10.6059310
  51.1489310  31.7149310  11.0309310  66.4639310  13.6059310  10.4319310
  66.6099310  14.0109310  11.2869310  65.5189310  13.6739310  10.2929310
  66.3619310  13.6659310  10.5239310  56.4399310  25.6589310  12.9169310
  56.7649310  24.8559310  13.3239310  55.5709310  25.4269310  12.5909310
  56.3699310  25.5269310  12.9269310  52.0559310  26.5929310  18.8859310
  52.8589310  27.1029310  18.7759310  51.6059310  27.0109310  19.6199310
  52.1009310  26.7119310  18.9659310  62.5519310  23.7409310   8.1459310
  63.0499310  23.5339310   7.3549310  62.7359310  24.6659310   8.3099310
  62.6389310  23.8329310   8.0659310  51.1409310  27.5239310   2.3449310
  51.9079310  27.2009310   2.8199310  50.3989310  27.2849310   2.8999310
  51.1439310  27.4519310   2.4769310  67.2399310  34.5129310  10.2139310
  67.0929310  33.5699310  10.2949310  67.8939310  34.7109310  10.8849310
  67.3049310  34.4169310  10.3099310  68.5729310  30.7909310   8.9999310
  67.7289310  31.2039310   9.1839310  68.4409310  29.8689310   9.2179310
  68.4479310  30.7259310   9.0509310  50.4789310  21.2799310  11.0409310
  51.2769310  20.9299310  10.6459310  50.4589310  20.8999310  11.9189310
  50.5779310  21.1859310  11.1029310  59.8729310  24.3369310   8.7689310
  59.4659310  25.0969310   8.3529310  60.7349310  24.2719310   8.3589310
  59.9309310  24.4259310   8.6629310  64.4099310  25.5759310   6.2509310
  65.0839310  25.9879310   6.7909310  63.5999310  26.0219310   6.4969310
  64.3929310  25.6859310   6.3509310  52.5639310  26.0669310   9.7539310
  53.5209310  26.0509310   9.7349310  52.3189310  25.2529310  10.1939310
  52.6549310  25.9609310   9.8079310  62.8669310  20.0769310  12.2929310
  62.4129310  20.5189310  11.5749310  62.3249310  20.2519310  13.0619310
  62.7399310  20.1559310  12.2989310  68.0319310  25.0049310  11.2369310
  67.6429310  24.5309310  11.9729310  67.4969310  25.7939310  11.1509310
  67.9139310  25.0449310  11.3199310  61.4059310  21.5529310  10.1029310
  62.0319310  22.0029310   9.5359310  61.2639310  20.7059310   9.6789310
  61.4679310  21.5019310   9.9759310  59.9409310  29.4299310  13.6019310
  60.3339310  30.2509310  13.8979310  59.0279310  29.4849310  13.8839310
  59.8749310  29.5419310  13.6759310  61.4299310  18.2979310   2.8589310
  60.6709310  18.5459310   2.3309310  61.9849310  19.0779310   2.8599310
  61.4039310  18.4299310   2.7919310  53.9649310  21.5909310   4.5759310
  53.8749310  21.3199310   3.6629310  53.0669310  21.7479310   4.8689310
  53.8379310  21.5769310   4.4969310  63.5519310  17.4819310   7.3719310
  62.8899310  17.8879310   6.8119310  64.2469310  17.2189310   6.7689310
  63.5559310  17.5009310   7.2229310  65.1649310  22.7139310  12.7509310
  64.8999310  22.0619310  13.4009310  65.3839310  22.2009310  11.9729310
  65.1589310  22.5649310  12.7349310  55.9109310  24.5069310   6.9759310
  56.0989310  23.7549310   6.4139310  56.7669310  24.8979310   7.1459310
  56.0439310  24.4609310   6.9259310  57.5669310  19.3669310  16.2159310
  58.4889310  19.4429310  16.4599310  57.1149310  19.9839310  16.7909310
  57.6269310  19.4549310  16.3199310  54.5579310  16.3769310   9.1349310
  54.7289310  17.2979310   9.3339310  55.1239310  15.8929310   9.7359310
  54.6519310  16.4329310   9.2369310  55.4119310  25.5039310   9.5279310
  55.6689310  25.0859310   8.7059310  55.4959310  24.8119310  10.1839310
  55.4559310  25.3619310   9.5069310  62.7239310  29.9589310   9.9869310
  62.8219310  30.2059310   9.0669310  61.8699310  30.3089310  10.2389310
  62.6269310  30.0349310   9.9019310  60.1139310  34.3729310   7.3259310
  59.9289310  33.5459310   6.8799310  59.8019310  35.0459310   6.7209310
  60.0499310  34.3529310   7.1909310  66.2179310  16.2429310  18.9509310
  65.6769310  15.7279310  19.5489310  65.7539310  17.0759310  18.8639310
  66.0899310  16.2839310  19.0169310  63.8119310  32.3849310  10.5259310
  63.2679310  32.9849310  10.0149310  63.4209310  31.5239310  10.3799310
  63.6929310  32.3519310  10.4419310  67.5869310  23.7939310  14.1489310
  66.6909310  23.4689310  14.0619310  67.4869310  24.6889310  14.4739310
  67.4589310  23.8669310  14.1799310  57.9039310  34.7529310   9.4989310
  57.8699310  34.0659310  10.1639310  58.3799310  34.3579310   8.7689310
  57.9599310  34.6149310   9.4909310  59.7829310  25.4809310   2.1869310
  60.5129310  26.1009310   2.1759310  59.0009310  26.0319310   2.1559310
  59.7759310  25.6309310   2.1809310  59.4149310  22.8619310  11.3029310
  58.9659310  22.1079310  11.6849310  60.1369310  22.4819310  10.8029310
  59.4499310  22.7169310  11.2879310  60.9499310  26.9859310  13.0149310
  60.6739310  27.8099310  13.4169310  61.9009310  26.9729310  13.1239310
  61.0369310  27.0899310  13.0799310  56.4379310  19.5989310   5.2859310
  56.2899310  20.5419310   5.2079310  55.6459310  19.2669310   5.7099310
  56.3179310  19.6769310   5.3299310  60.3059310  34.2089310  11.2639310
  61.0959310  34.7469310  11.2099310  59.7059310  34.6009310  10.6299310
  60.3299310  34.3279310  11.1759310  60.0889310  19.9429310  17.7049310
  59.6229310  20.5409310  18.2889310  60.6839310  20.5069310  17.2099310
  60.1049310  20.0909310  17.7159310  55.6939310  20.0879310   1.8809310
  54.7769310  19.8729310   2.0469310  56.1689310  19.6999310   2.6159310
  55.6369310  20.0109310   1.9959310  52.3359310  24.8339310  15.1519310
  51.6569310  25.4729310  15.3719310  51.9269310  23.9849310  15.3149310
  52.1959310  24.8069310  15.2009310  63.2959310  32.8389310   6.1159310
  62.9279310  33.4199310   6.7809310  64.1869310  33.1619310   5.9819310
  63.3629310  32.9549310   6.1839310  50.4839310  17.7429310  13.7339310
  51.3459310  17.7039310  14.1479310  50.6699310  17.8929310  12.8069310
  50.6179310  17.7569310  13.6679310  61.4009310  25.2759310  11.1009310
  61.1329310  25.9189310  11.7579310  60.6019310  25.0939310  10.6049310
  61.2639310  25.3349310  11.1209310  49.9429310  22.9139310  17.7209310
  49.3429310  23.6469310  17.8619310  50.4899310  22.8969310  18.5069310
  49.9359310  23.0059310  17.8399310  51.2989310  21.8149310   5.7639310
  51.6989310  22.3999310   6.4079310  50.8349310  22.3999310   5.1649310
  51.2909310  21.9649310   5.7699310  61.3779310  23.6099310  13.6629310
  61.2149310  23.9189310  12.7719310  60.5169310  23.3459310  13.9859310
  61.2469310  23.6159310  13.5909310  61.5999310  17.8309310  17.8009310
  61.5969310  17.5409310  16.8889310  60.9279310  18.5119310  17.8379310
  61.5129310  17.8809310  17.6889310  61.3099310  27.2729310  16.1989310
  60.4919310  27.1169310  15.7279310  61.3579310  28.2249310  16.2879310
  61.2119310  27.3749310  16.1499310  65.6599310  21.9689310  17.4299310
  66.3729310  21.3369310  17.5249310  66.0999310  22.8059310  17.2839310
  65.8069310  21.9949310  17.4229310  51.6889310  23.7509310  10.9519310
  50.9099310  24.2569310  11.1829310  51.4269310  22.8379310  11.0749310
  51.5559310  23.6989310  10.9969310  67.1329310  33.2459310  12.9989310
  67.4149310  33.1499310  13.9089310  66.3519310  33.7969310  13.0479310
  67.0689310  33.3039310  13.1219310  54.7849310  27.9079310   8.0579310
  54.6979310  28.6879310   8.6069310  54.8569310  27.1839310   8.6809310
  54.7829310  27.9149310   8.2079310  50.4159310  18.9919310   3.2629310
  50.3589310  18.7379310   2.3419310  49.8679310  19.7739310   3.3309310
  50.3389310  19.0599310   3.1539310  54.8869310  23.0489310  15.2419310
  54.7959310  22.9289310  14.2969310  54.1629310  23.6269310  15.4799310
  54.7829310  23.1079310  15.1509310  55.9689310  16.5649310   6.6939310
  55.5639310  16.2339310   7.4959310  56.0759310  15.7909310   6.1419310
  55.9309310  16.4239310   6.7259310  67.0539310  32.0239310   6.4339310
  67.1239310  31.3949310   7.1509310  67.1199310  31.4919310   5.6409310
  67.0709310  31.8759310   6.4239310  56.5119310  22.6109310   4.5799310
  56.8849310  22.5459310   3.7009310  55.6069310  22.3149310   4.4789310
  56.4439310  22.5639310   4.4549310  56.2109310  29.7679310   3.0139310
  55.4789310  29.2789310   2.6379310  56.8709310  29.7809310   2.3219310
  56.2009310  29.7069310   2.8779310  58.6569310  19.5079310   6.9649310
  57.8049310  19.3699310   6.5529310  58.7069310  20.4549310   7.1009310
  58.5549310  19.6119310   6.9299310  51.1569310  33.1129310  13.5849310
  50.8639310  32.8399310  12.7149310  50.8489310  34.0149310  13.6689310
  51.0799310  33.1929310  13.4839310  53.5289310  20.1759310  16.1559310
  54.3199310  20.2089310  15.6189310  53.1689310  21.0619310  16.1079310
  53.5839310  20.2929310  16.0809310  64.6849310  18.4289310  17.6249310
  64.7459310  18.0819310  16.7349310  63.7449310  18.4769310  17.7989310
  64.5719310  18.3909310  17.5329310  55.0719310  30.4769310  12.9829310
  54.5019310  31.1639310  13.3299310  54.6199310  29.6609310  13.1969310
  54.9409310  30.4609310  13.0549310  61.6639310  32.0579310   4.0739310
  60.9789310  31.9859310   4.7389310  62.4619310  32.2359310   4.5709310
  61.6779310  32.0709310   4.2229310  59.3749310  17.6819310   5.0559310
  59.1499310  18.4669310   5.5549310  60.2739310  17.8339310   4.7639310
  59.4619310  17.8019310   5.0829310  64.8019310  17.4019310   9.9259310
  65.6729310  17.0089310   9.9829310  64.7029310  17.6329310   9.0029310
  64.9009310  17.3809310   9.8149310  61.7099310  17.6689310  15.0599310
  61.4499310  16.8929310  14.5629310  62.6659310  17.6739310  15.0119310
  61.7989310  17.5699310  14.9899310  64.8269310  21.2669310   5.1739310
  64.6059310  21.0169310   6.0719310  65.6429310  20.8009310   4.9909310
  64.9029310  21.1749310   5.2659310  58.6299310  19.8169310  10.3409310
  57.7789310  19.3859310  10.2539310  58.7289310  19.9639310  11.2819310
  58.5329310  19.7809310  10.4499310  57.2609310  16.8379310  17.4919310
  56.7079310  17.1489310  18.2079310  57.3219310  17.5839310  16.8949310
  57.1979310  16.9729310  17.5069310  56.0519310  29.3509310   6.1769310
  55.4159310  28.8959310   6.7279310  55.5639310  30.0849310   5.8039310
  55.9089310  29.3869310   6.1999310  61.9299310  31.0219310  14.3819310
  61.7269310  30.7119310  15.2639310  62.4439310  30.3139310  13.9919310
  61.9699310  30.8909310  14.4449310  67.5179310  21.2909310   3.0099310
  66.6949310  20.8039310   2.9619310  67.2659310  22.1549310   3.3379310
  67.3809310  21.3389310   3.0459310  64.5749310  28.6239310  17.0289310
  63.9349310  28.0909310  17.5009310  64.5369310  28.3009310  16.1279310
  64.4879310  28.5139310  16.9739310  58.3419310  30.9919310  17.1639310
  57.9549310  30.6269310  16.3679310  57.6939310  31.6209310  17.4789310
  58.2089310  31.0249310  17.1029310  50.7019310  30.3459310  14.5329310
  50.3199310  31.1889310  14.7769310  51.5259310  30.5719310  14.1019310
  50.7579310  30.4829310  14.5089310  52.6049310  19.9719310   9.9549310
  52.5109310  19.5049310   9.1249310  53.4279310  19.6489310  10.3199310
  52.6979310  19.8709310   9.8959310  67.2419310  26.4609310  14.8459310
  66.3509310  26.6769310  15.1239310  67.5189310  27.2139310  14.3239310
  67.1629310  26.5849310  14.8149310  66.3099310  28.4829310   5.2779310
  66.3319310  28.5989310   6.2279310  66.4829310  29.3559310   4.9269310
  66.3349310  28.6099310   5.3549310  65.6849310  34.4229310   5.5849310
  65.4209310  34.3879310   4.6659310  66.3069310  33.7019310   5.6839310
  65.7309310  34.3259310   5.4799310  62.8589310  34.4189310   3.0959310
  62.3429310  33.7339310   3.5219310  62.3759310  35.2259310   3.2699310
  62.7309310  34.4339310   3.1729310  54.7679310  19.2299310  11.2109310
  55.2199310  18.6509310  11.8249310  55.3309310  19.2449310  10.4379310
  54.8979310  19.1579310  11.1909310  51.3499310  22.3299310  15.4799310
  50.7839310  22.6909310  14.7979310  50.8539310  22.4459310  16.2899310
  51.2139310  22.3909310  15.4959310  62.5959310  35.9619310  11.3969310
  63.3709310  35.8059310  10.8579310  62.5649310  36.9129310  11.5029310
  62.6909310  36.0639310  11.3419310  59.1659310  32.3739310   5.6259310
  58.9279310  31.5609310   6.0699310  58.3609310  32.6519310   5.1889310
  59.0329310  32.3059310   5.6269310  64.3589310  31.7939310  16.9329310
  64.6289310  30.8899310  17.0929310  63.4069310  31.7809310  17.0339310
  64.2719310  31.6769310  16.9669310  64.6689310  27.4999310  14.6299310
  64.0589310  26.7639310  14.6859310  64.2369310  28.1239310  14.0469310
  64.5359310  27.4849310  14.5629310  53.7669310  28.0879310  13.0549310
  53.3059310  28.4319310  12.2899310  53.8479310  27.1499310  12.8829310
  53.7179310  28.0119310  12.9349310  51.9629310  25.7289310   5.2399310
  52.9189310  25.7609310   5.2669310  51.6919310  26.6459310   5.2779310
  52.0509310  25.8499310   5.2479310  56.8029310  21.1879310  18.1829310
  56.0379310  20.7909310  18.6009310  56.5489310  22.0989310  18.0349310
  56.6719310  21.2539310  18.2179310  53.3219310  19.0189310   3.2109310
  53.6299310  19.0839310   4.1149310  52.4039310  18.7609310   3.2899310
  53.2439310  18.9939310   3.3369310  62.6309310  23.2799310   5.5949310
  63.2509310  23.7239310   5.0159310  61.8209310  23.7839310   5.5099310
  62.6069310  23.4019310   5.5099310  54.9229310  31.4159310   4.8269310
  54.2229310  31.8139310   4.3099310  55.3549310  30.8129310   4.2209310
  54.8889310  31.3899310   4.6829310  63.5239310  29.3589310  12.6489310
  63.3509310  29.2819310  11.7109310  64.3069310  29.9059310  12.7039310
  63.6019310  29.4189310  12.5359310  58.3419310  25.7429310   6.9679310
  58.8559310  25.1429310   6.4279310  58.0679310  26.4329310   6.3639310
  58.3719310  25.7539310   6.8219310  65.3699310  34.3099310  16.2589310
  65.7789310  34.4819310  17.1069310  65.1009310  33.3929310  16.3039310
  65.3879310  34.2149310  16.3729310  64.3839310  18.9719310  14.5269310
  64.0969310  19.7979310  14.9179310  64.1609310  19.0559310  13.5999310
  64.3179310  19.0889310  14.4589310  68.0369310  33.6019310   3.2569310
  68.6239310  33.4249310   2.5219310  67.4459310  34.2819310   2.9329310
  68.0359310  33.6659310   3.1209310  67.8769310  31.9569310  18.2519310
  67.1049310  31.9879310  18.8159310  68.4939310  32.5669310  18.6579310
  67.8569310  32.0389310  18.3769310  68.3989310  20.3079310   7.0129310
  68.9809310  20.7929310   6.4269310  67.8329310  20.9779310   7.3959310
  68.4009310  20.4559310   6.9869310  62.7779310  27.0839310  18.3209310
  61.9669310  27.1219310  17.8139310  63.1419310  26.2209310  18.1259310
  62.7209310  26.9789310  18.2309310  56.1179310  19.1269310   8.8789310
  55.9399310  19.7169310   8.1469310  56.6029310  18.3999310   8.4889310
  56.1569310  19.1099310   8.7359310  49.7229310  25.7169310   7.4559310
  50.3199310  25.9729310   6.7519310  50.0259310  26.2119310   8.2179310
  49.8379310  25.8129310   7.4629310  52.4039310  29.2239310  11.2609310
  52.6629310  29.9169310  10.6529310  51.5319310  29.4829310  11.5599310
  52.3259310  29.3459310  11.2209310  66.0919310  26.8139310   8.2419310
  66.9449310  26.4729310   7.9719310  66.1139310  26.7849310   9.1979310
  66.2039310  26.7659310   8.3289310  59.0219310  23.7249310  16.1469310
  58.2679310  23.3949310  15.6579310  58.8209310  23.5269310  17.0609310
  58.8999310  23.6569310  16.2009310  62.5719310  23.0479310  18.2159310
  61.7879310  23.0089310  18.7639310  63.2089310  22.4969310  18.6699310
  62.5529310  22.9729310  18.3439310  68.1679310  16.8399310   7.7499310
  67.5719310  16.4899310   8.4119310  68.8859310  16.2079310   7.7149310
  68.1839310  16.7149310   7.8299310  64.2379310  27.4849310   3.4569310
  64.6339310  27.8259310   4.2589310  64.7289310  27.9039310   2.7499310
  64.3509310  27.5819310   3.4689310  63.9669310  21.5709310  15.4189310
  64.6599310  21.7649310  16.0509310  63.3309310  22.2769310  15.5369310
  63.9739310  21.6859310  15.5149310  64.4319310  33.8409310  12.8939310
  63.9589310  34.6739310  12.8869310  63.9009310  33.2599310  12.3499310
  64.3029310  33.8729310  12.8239310  53.9429310  13.8309310  70.5779310
  52.9889310  13.7629310  70.5459310  54.1319310  14.1379310  71.4639310
  53.8449310  13.8619310  70.6869310  58.7079310  11.2749310  63.7409310
  58.5339310  11.4359310  64.6689310  57.9429310  10.7889310  63.4349310
  58.5879310  11.2329310  63.8209310  55.2789310   6.1719310  59.0719310
  55.1249310   6.6289310  59.8989310  55.9909310   5.5619310  59.2639310
  55.3499310   6.1519310  59.2019310  65.4399310  12.3309310  57.2579310
  64.5779310  12.6589310  57.0019310  65.3439310  11.3789310  57.2569310
  65.3169310  12.2509310  57.2249310  52.1659310  12.4279310  64.0349310
  52.2039310  13.3209310  63.6909310  51.3669310  12.4069310  64.5609310
  52.0689310  12.5399310  64.0579310  56.8769310  14.2179310  60.7239310
  56.0779310  13.6909310  60.7339310  57.2209310  14.1149310  59.8369310
  56.8189310  14.1369310  60.6119310  60.7849310   9.2029310  63.1909310
  60.3589310   8.5959310  62.5869310  60.1219310   9.8699310  63.3689310
  60.6459310   9.2109310  63.1369310  67.6559310   4.1259310  64.2849310
  66.8769310   4.2359310  64.8299310  67.9999310   5.0119310  64.1759310
  67.5999310   4.2529310  64.3409310  58.9869310   7.4419310  71.7169310
  58.8589310   6.5769310  72.1059310  59.4299310   7.2669310  70.8859310
  59.0269310   7.3089310  71.6599310  61.8629310   8.3939310  58.7359310
  62.6329310   8.4149310  59.3029310  62.1819310   8.0269310  57.9119310
  62.0019310   8.3499310  58.7029310  67.5989310   8.0309310  60.4659310
  67.2329310   8.6719310  61.0759310  66.8339310   7.6089310  60.0739310
  67.4539310   8.0589310  60.4939310  65.5809310   9.6309310  57.4829310
  65.6229310   9.4969310  56.5359310  66.4669310   9.8979310  57.7259310
  65.6999310   9.6479310  57.3929310  50.9839310   8.1089310  72.8669310
  50.0629310   7.8889310  72.7269310  51.0639310   8.2159310  73.8139310
  50.8759310   8.0939310  72.9699310  62.5739310  11.7979310  64.0719310
  62.7499310  12.6479310  63.6689310  61.8149310  11.4609310  63.5979310
  62.4999310  11.8639310  63.9599310  62.3639310  15.1229310  65.3239310
  62.9499310  15.8599310  65.1489310  61.5819310  15.3089310  64.8049310
  62.3389310  15.2409310  65.2349310  54.6859310   2.3779310  63.8439310
  54.2789310   2.3769310  62.9769310  54.1999310   3.0409310  64.3349310
  54.5719310   2.4629310  63.7959310  61.1529310   3.2629310  72.8609310
  61.7389310   3.5759310  73.5499310  60.4269310   3.8879310  72.8609310
  61.1349310   3.3829310  72.9489310  58.7729310   3.7639310  62.3929310
  57.9479310   3.7459310  61.9079310  58.5219310   3.5779310  63.2979310
  58.6349310   3.7379310  62.4469310  55.8869310  13.4289310  67.0099310
  55.6259310  13.0539310  67.8509310  56.6179310  12.8839310  66.7209310
  55.9469310  13.3109310  67.0799310  54.1249310  11.6219310  65.7249310
  53.4009310  11.9249310  65.1769310  54.7189310  12.3719310  65.7729310
  54.1089310  11.7569310  65.6609310  53.5979310   5.3859310  57.0629310
  52.9949310   6.1229310  56.9669310  54.2269310   5.6759310  57.7239310
  53.6009310   5.5169310  57.1349310  58.0249310  13.8479310  58.3559310
  58.4839310  13.0259310  58.5279310  58.7229310  14.4879310  58.2169310
  58.1729310  13.8249310  58.3599310  56.7479310   4.3389310  67.3379310
  57.6289310   4.6309310  67.5699310  56.8339310   4.0049310  66.4449310
  56.8719310   4.3339310  67.2529310  66.1739310   8.1659310  67.6439310
  66.6139310   8.6729310  68.3269310  65.5019310   7.6689310  68.1099310
  66.1449310   8.1669310  67.7909310  67.3889310   9.9339310  69.8719310
  66.6749310  10.5389310  69.6729310  68.1049310  10.4969310  70.1689310
  67.3899310  10.0829310  69.8849310  60.9009310  10.9949310  58.8099310
  61.2049310  10.1019310  58.9659310  61.4279310  11.5349310  59.3989310
  61.0069310  10.9499310  58.9049310  66.1659310   2.3309310  66.7129310
  67.0779310   2.3419310  67.0059310  66.1659310   1.7459310  65.9549310
  66.2829310   2.2569310  66.6539310  64.0109310   6.6679310  68.5639310
  63.1359310   6.4109310  68.2739310  64.3629310   5.8849310  68.9879310
  63.9439310   6.5349310  68.5809310  53.7199310  13.5839310  73.7219310
  53.4679310  14.4879310  73.9129310  54.6249310  13.5189310  74.0249310
  53.8039310  13.6919310  73.7849310  58.3559310   3.1679310  65.0269310
  58.4419310   2.3839310  65.5699310  58.7959310   3.8549310  65.5269310
  58.4229310   3.1559310  65.1599310  67.0339310  11.9079310  60.3629310
  67.1549310  12.7829310  59.9949310  67.2429310  11.3139310  59.6419310
  67.0759310  11.9439310  60.2229310  51.4309310  15.3899310  61.5459310
  50.6499310  15.2589310  61.0079310  51.4009310  16.3149310  61.7899310
  51.3269310  15.4919310  61.5079310  61.4819310  11.1919310  73.4969310
  62.0639310  11.0279310  74.2379310  60.8889310  11.8779310  73.8049310
  61.4799310  11.2589310  73.6309310  57.7839310  11.6559310  66.2359310
  57.3039310  10.8479310  66.4129310  58.5139310  11.6419310  66.8549310
  57.8159310  11.5509310  66.3379310  71.1959310   4.5729310  64.6199310
  71.2099310   4.2599310  65.5249310  71.1469310   5.5259310  64.6969310
  71.1919310   4.6549310  64.7459310  60.5889310   2.5089310  58.5029310
  59.9629310   1.7849310  58.5269310  60.8069310   2.6679310  59.4209310
  60.5369310   2.4369310  58.6229310  57.3269310   4.1569310  70.6229310
  56.4819310   3.8369310  70.9399310  57.7999310   3.3659310  70.3639310
  57.2789310   4.0149310  70.6309310  53.1619310  13.9149310  60.0799310
  52.5799310  14.4129310  60.6529310  53.3909310  14.5259310  59.3799310
  53.1169310  14.0569310  60.0639310  66.7609310   5.4739310  58.5039310
  66.3039310   5.2329310  59.3099310  67.6869310   5.3339310  58.7029310
  66.8209310   5.4249310  58.6329310  56.5159310   8.3829310  71.9849310
  57.3959310   8.0099310  71.9329310  55.9779310   7.8019310  71.4479310
  56.5599310   8.2609310  71.9099310  65.5049310  12.0939310  70.3419310
  65.1539310  11.9909310  71.2269310  65.6529310  13.0359310  70.2519310
  65.4789310  12.2009310  70.4439310  67.6419310  13.8609310  72.2209310
  67.8399310  13.4659310  73.0709310  66.9709310  14.5159310  72.4119310
  67.5809310  13.8939310  72.3539310  62.9599310   6.6399310  71.6339310
  62.4029310   6.2459310  70.9619310  62.3839310   7.2499310  72.0939310
  62.8149310   6.6679310  71.6069310  60.7869310   2.6269310  61.1669310
  59.9639310   2.9099310  61.5629310  61.4649310   3.0129310  61.7219310
  60.7689310   2.7119310  61.2889310  53.7989310   6.2179310  69.2599310
  53.4219310   6.0909310  70.1299310  53.2359310   5.7069310  68.6779310
  53.6789310   6.1369310  69.2969310  62.8059310   7.7279310  64.7149310
  63.3509310   8.2289310  65.3219310  62.1119310   8.3349310  64.4579310
  62.7869310   7.8689310  64.7599310  50.7889310   9.2939310  65.5359310
  51.1829310   9.2239310  64.6659310  51.4009310   8.8389310  66.1129310
  50.9179310   9.2269310  65.4979310  65.5099310   4.9739310  60.9079310
  65.4669310   5.5929310  61.6379310  65.1439310   4.1629310  61.2599310
  65.4579310   4.9499310  61.0469310  60.2599310   5.8379310  61.3869310
  59.5879310   5.1569310  61.4169310  60.3389310   6.0549310  60.4579310
  60.1839310   5.7789310  61.2719310  61.4459310  14.8169310  70.5049310
  60.8969310  14.7479310  69.7249310  61.8099310  13.9399310  70.6209310
  61.4229310  14.6959310  70.4199310  54.9249310   3.1389310  69.3019310
  54.3349310   2.3999310  69.1499310  55.5369310   3.1109310  68.5669310
  54.9279310   3.0409310  69.1879310  56.3099310   9.3309310  67.3339310
  56.2699310   8.3759310  67.2969310  55.8549310   9.5589310  68.1439310
  56.2469310   9.2379310  67.4329310  64.2749310   5.9839310  74.0159310
  63.5839310   5.3439310  74.1839310  64.0669310   6.3399310  73.1529310
  64.1599310   5.9469310  73.9269310  49.8929310   5.0859310  61.1529310
  50.5579310   5.6859310  61.4909310  49.0609310   5.5199310  61.3419310
  49.8719310   5.2179310  61.2209310  52.2259310   9.5309310  63.3549310
  52.9049310   9.2509310  63.9689310  52.3239310  10.4809310  63.3059310
  52.3249310   9.6169310  63.4279310  57.6399310   8.2669310  58.4419310
  57.2569310   7.9579310  57.6209310  57.8789310   9.1779310  58.2669310
  57.6219310   8.3439310  58.3149310  60.1529310  11.9419310  67.7439310
  60.0889310  11.4219310  68.5459310  60.6979310  12.6909310  67.9869310
  60.2139310  11.9709310  67.8779310  65.6519310  10.8379310  64.3629310
  64.7369310  10.8479310  64.0799310  65.7739310   9.9699310  64.7479310
  65.5499310  10.7279310  64.3759310  53.3049310   2.8019310  58.1579310
  52.3799310   2.5589310  58.1959310  53.3009310   3.7219310  57.8929310
  53.1869310   2.8889310  58.1289310  55.2739310   7.1549310  61.4469310
  56.0969310   7.6409310  61.4089310  55.3249310   6.6599310  62.2639310
  55.3859310   7.1539310  61.5459310  51.9649310  15.0299310  65.5229310
  51.4229310  15.4529310  66.1899310  52.8639310  15.2269310  65.7849310
  52.0099310  15.1099310  65.6419310  57.5689310   8.7919310  61.4489310
  57.0459310   9.4949310  61.8349310  57.5809310   8.9879310  60.5129310
  57.5039310   8.9069310  61.3789310  64.6119310   3.6589310  57.6129310
  65.0899310   3.3059310  56.8639310  65.1139310   4.4309310  57.8759310
  64.7369310   3.7129310  57.5509310  53.5059310   9.0949310  72.4429310
  53.4679310   9.4119310  71.5409310  52.6339310   8.7359310  72.6079310
  53.3889310   9.0889310  72.3489310  57.4139310  10.8349310  71.0179310
  56.6309310  11.2409310  70.6489310  57.1259310   9.9639310  71.2909310
  57.2769310  10.7749310  71.0059310  51.1519310  12.8469310  67.7609310
  51.8069310  13.2079310  67.1639310  50.4739310  12.4919310  67.1859310
  51.1489310  12.8479310  67.6109310  56.4399310   6.7919310  69.4969310
  56.7649310   5.9889310  69.9039310  55.5709310   6.5599310  69.1709310
  56.3699310   6.6599310  69.5069310  62.5519310   4.8739310  64.7259310
  63.0499310   4.6669310  63.9349310  62.7359310   5.7989310  64.8899310
  62.6389310   4.9659310  64.6459310  57.1769310   3.6199310  58.4669310
  56.6959310   2.8029310  58.3359310  57.6109310   3.7789310  57.6289310
  57.1709310   3.5359310  58.3429310  51.1409310   8.6569310  58.9249310
  51.9079310   8.3339310  59.3999310  50.3989310   8.4179310  59.4799310
  51.1439310   8.5849310  59.0569310  67.2399310  15.6459310  66.7939310
  67.0929310  14.7029310  66.8749310  67.8939310  15.8439310  67.4649310
  67.3049310  15.5499310  66.8899310  68.5729310  11.9239310  65.5799310
  67.7289310  12.3369310  65.7639310  68.4409310  11.0019310  65.7979310
  68.4479310  11.8589310  65.6309310  50.4789310   2.4129310  67.6209310
  51.2769310   2.0629310  67.2259310  50.4589310   2.0329310  68.4989310
  50.5779310   2.3189310  67.6829310  59.8729310   5.4699310  65.3489310
  59.4659310   6.2299310  64.9329310  60.7349310   5.4049310  64.9389310
  59.9309310   5.5589310  65.2429310  64.4099310   6.7089310  62.8309310
  65.0839310   7.1209310  63.3709310  63.5999310   7.1549310  63.0769310
  64.3929310   6.8189310  62.9309310  52.5639310   7.1999310  66.3339310
  53.5209310   7.1839310  66.3149310  52.3189310   6.3859310  66.7739310
  52.6549310   7.0939310  66.3879310  68.0319310   6.1379310  67.8169310
  67.6429310   5.6639310  68.5529310  67.4969310   6.9269310  67.7309310
  67.9139310   6.1779310  67.8999310  61.4059310   2.6859310  66.6829310
  62.0319310   3.1359310  66.1159310  61.2639310   1.8389310  66.2589310
  61.4679310   2.6349310  66.5559310  59.9409310  10.5629310  70.1819310
  60.3339310  11.3839310  70.4779310  59.0279310  10.6179310  70.4639310
  59.8749310  10.6749310  70.2559310  53.9649310   2.7239310  61.1559310
  53.8749310   2.4529310  60.2429310  53.0669310   2.8809310  61.4489310
  53.8379310   2.7099310  61.0769310  65.1649310   3.8469310  69.3309310
  64.8999310   3.1949310  69.9809310  65.3839310   3.3339310  68.5529310
  65.1589310   3.6979310  69.3149310  55.9109310   5.6399310  63.5559310
  56.0989310   4.8879310  62.9939310  56.7669310   6.0309310  63.7259310
  56.0439310   5.5939310  63.5059310  58.3609310  10.8469310  57.8389310
  59.2049310  10.8089310  58.2899310  58.5839310  11.0519310  56.9309310
  58.4979310  10.8679310  57.7809310  55.4119310   6.6369310  66.1079310
  55.6689310   6.2189310  65.2859310  55.4959310   5.9449310  66.7639310
  55.4559310   6.4949310  66.0869310  62.7239310  11.0919310  66.5669310
  62.8219310  11.3389310  65.6469310  61.8699310  11.4419310  66.8189310
  62.6269310  11.1679310  66.4819310  60.1139310  15.5059310  63.9059310
  59.9289310  14.6789310  63.4599310  59.8019310  16.1789310  63.3009310
  60.0499310  15.4859310  63.7709310  61.7019310  14.7409310  56.9959310
  61.8599310  15.5799310  56.5629310  61.9639310  14.8879310  57.9049310
  61.7559310  14.8669310  57.0569310  63.8119310  13.5179310  67.1059310
  63.2679310  14.1179310  66.5949310  63.4209310  12.6569310  66.9599310
  63.6929310  13.4849310  67.0219310  67.5869310   4.9269310  70.7289310
  66.6909310   4.6019310  70.6419310  67.4869310   5.8219310  71.0539310
  67.4589310   4.9999310  70.7599310  57.9039310  15.8859310  66.0789310
  57.8699310  15.1989310  66.7439310  58.3799310  15.4909310  65.3489310
  57.9599310  15.7479310  66.0709310  59.7829310   6.6139310  58.7669310
  60.5129310   7.2339310  58.7559310  59.0009310   7.1649310  58.7359310
  59.7759310   6.7639310  58.7609310  59.4149310   3.9949310  67.8829310
  58.9659310   3.2409310  68.2649310  60.1369310   3.6149310  67.3829310
  59.4499310   3.8499310  67.8679310  60.9499310   8.1189310  69.5949310
  60.6739310   8.9429310  69.9969310  61.9009310   8.1059310  69.7039310
  61.0369310   8.2229310  69.6599310  60.3059310  15.3419310  67.8439310
  61.0959310  15.8799310  67.7899310  59.7059310  15.7339310  67.2099310
  60.3299310  15.4609310  67.7559310  52.3359310   5.9669310  71.7319310
  51.6569310   6.6059310  71.9519310  51.9269310   5.1179310  71.8949310
  52.1959310   5.9399310  71.7809310  63.2959310  13.9719310  62.6959310
  62.9279310  14.5529310  63.3609310  64.1869310  14.2949310  62.5619310
  63.3629310  14.0879310  62.7639310  61.4009310   6.4089310  67.6809310
  61.1329310   7.0519310  68.3379310  60.6019310   6.2269310  67.1849310
  61.2639310   6.4679310  67.7009310  51.2989310   2.9479310  62.3439310
  51.6989310   3.5329310  62.9879310  50.8349310   3.5329310  61.7449310
  51.2909310   3.0979310  62.3499310  61.3779310   4.7429310  70.2429310
  61.2149310   5.0519310  69.3519310  60.5169310   4.4789310  70.5659310
  61.2469310   4.7489310  70.1709310  54.1749310   9.6629310  58.6729310
  54.2609310   9.6119310  57.7209310  53.6219310  10.4309310  58.8219310
  54.1149310   9.7549310  58.5699310  61.3099310   8.4059310  72.7789310
  60.4919310   8.2499310  72.3079310  61.3579310   9.3579310  72.8679310
  61.2119310   8.5079310  72.7299310  65.6599310   3.1019310  74.0099310
  66.3729310   2.4699310  74.1049310  66.0999310   3.9389310  73.8639310
  65.8069310   3.1279310  74.0029310  51.6889310   4.8839310  67.5319310
  50.9099310   5.3899310  67.7629310  51.4269310   3.9709310  67.6549310
  51.5559310   4.8319310  67.5769310  67.1329310  14.3789310  69.5789310
  67.4149310  14.2829310  70.4889310  66.3519310  14.9299310  69.6279310
  67.0689310  14.4369310  69.7019310  54.7849310   9.0409310  64.6379310
  54.6979310   9.8209310  65.1869310  54.8569310   8.3169310  65.2609310
  54.7829310   9.0479310  64.7879310  54.8869310   4.1819310  71.8219310
  54.7959310   4.0619310  70.8769310  54.1629310   4.7599310  72.0599310
  54.7829310   4.2409310  71.7309310  67.0539310  13.1569310  63.0139310
  67.1239310  12.5279310  63.7309310  67.1199310  12.6249310  62.2209310
  67.0709310  13.0089310  63.0039310  56.5119310   3.7439310  61.1599310
  56.8849310   3.6789310  60.2809310  55.6069310   3.4479310  61.0589310
  56.4439310   3.6969310  61.0349310  56.2109310  10.9009310  59.5939310
  55.4789310  10.4119310  59.2179310  56.8709310  10.9139310  58.9019310
  56.2009310  10.8399310  59.4579310  51.1569310  14.2459310  70.1649310
  50.8639310  13.9729310  69.2949310  50.8489310  15.1479310  70.2489310
  51.0799310  14.3259310  70.0639310  59.7019310   4.3119310  56.7839310
  59.6829310   4.9619310  57.4859310  60.0569310   3.5239310  57.1959310
  59.7449310   4.2949310  56.9259310  55.0719310  11.6099310  69.5629310
  54.5019310  12.2969310  69.9099310  54.6199310  10.7939310  69.7769310
  54.9409310  11.5939310  69.6349310  61.6639310  13.1909310  60.6539310
  60.9789310  13.1189310  61.3189310  62.4619310  13.3689310  61.1509310
  61.6779310  13.2039310  60.8029310  64.8269310   2.3999310  61.7539310
  64.6059310   2.1499310  62.6519310  65.6429310   1.9339310  61.5709310
  64.9029310   2.3079310  61.8459310  62.6729310  12.1629310  56.9009310
  62.2729310  13.0309310  56.9509310  62.1969310  11.6419310  57.5479310
  62.5609310  12.2079310  56.9899310  56.0519310  10.4839310  62.7569310
  55.4159310  10.0289310  63.3079310  55.5639310  11.2179310  62.3839310
  55.9089310  10.5199310  62.7799310  61.9299310  12.1549310  70.9619310
  61.7269310  11.8449310  71.8439310  62.4439310  11.4469310  70.5719310
  61.9699310  12.0239310  71.0249310  67.5179310   2.4239310  59.5899310
  66.6949310   1.9369310  59.5419310  67.2659310   3.2879310  59.9179310
  67.3809310   2.4719310  59.6259310  64.5749310   9.7569310  73.6089310
  63.9349310   9.2239310  74.0809310  64.5369310   9.4339310  72.7079310
  64.4879310   9.6469310  73.5539310  58.3419310  12.1249310  73.7439310
  57.9549310  11.7599310  72.9479310  57.6939310  12.7539310  74.0589310
  58.2089310  12.1579310  73.6829310  50.7019310  11.4789310  71.1129310
  50.3199310  12.3219310  71.3569310  51.5259310  11.7049310  70.6819310
  50.7579310  11.6159310  71.0889310  67.2419310   7.5939310  71.4259310
  66.3509310   7.8099310  71.7039310  67.5189310   8.3469310  70.9039310
  67.1629310   7.7179310  71.3949310  66.3099310   9.6159310  61.8579310
  66.3319310   9.7319310  62.8079310  66.4829310  10.4889310  61.5069310
  66.3349310   9.7429310  61.9349310  65.6849310  15.5559310  62.1649310
  65.4209310  15.5209310  61.2459310  66.3069310  14.8349310  62.2639310
  65.7309310  15.4589310  62.0599310  62.8589310  15.5519310  59.6759310
  62.3429310  14.8669310  60.1019310  62.3759310  16.3589310  59.8499310
  62.7309310  15.5669310  59.7529310  51.3499310   3.4629310  72.0599310
  50.7839310   3.8239310  71.3779310  50.8539310   3.5789310  72.8699310
  51.2139310   3.5239310  72.0759310  62.5959310  17.0949310  67.9769310
  63.3709310  16.9389310  67.4379310  62.5649310  18.0459310  68.0829310
  62.6909310  17.1969310  67.9219310  59.1659310  13.5069310  62.2059310
  58.9279310  12.6939310  62.6499310  58.3609310  13.7849310  61.7689310
  59.0329310  13.4389310  62.2069310  64.3589310  12.9269310  73.5129310
  64.6289310  12.0229310  73.6729310  63.4069310  12.9139310  73.6139310
  64.2719310  12.8099310  73.5469310  64.6689310   8.6329310  71.2099310
  64.0589310   7.8969310  71.2659310  64.2369310   9.2569310  70.6269310
  64.5359310   8.6179310  71.1429310  53.7669310   9.2209310  69.6349310
  53.3059310   9.5649310  68.8699310  53.8479310   8.2829310  69.4629310
  53.7179310   9.1449310  69.5149310  51.9629310   6.8619310  61.8199310
  52.9189310   6.8939310  61.8469310  51.6919310   7.7789310  61.8579310
  52.0509310   6.9829310  61.8279310  62.6309310   4.4129310  62.1749310
  63.2509310   4.8569310  61.5959310  61.8209310   4.9169310  62.0899310
  62.6069310   4.5349310  62.0899310  49.2509310  10.4649310  58.1359310
  49.8789310   9.9419310  58.6349310  49.7449310  10.7709310  57.3749310
  49.3949310  10.4369310  58.1029310  54.9229310  12.5489310  61.4069310
  54.2229310  12.9469310  60.8899310  55.3549310  11.9459310  60.8009310
  54.8889310  12.5229310  61.2629310  63.5239310  10.4919310  69.2289310
  63.3509310  10.4149310  68.2909310  64.3069310  11.0389310  69.2839310
  63.6019310  10.5519310  69.1159310  58.3419310   6.8759310  63.5479310
  58.8559310   6.2759310  63.0079310  58.0679310   7.5659310  62.9439310
  58.3719310   6.8869310  63.4019310  65.3699310  15.4429310  72.8389310
  65.7789310  15.6149310  73.6869310  65.1009310  14.5259310  72.8839310
  65.3879310  15.3479310  72.9529310  68.0369310  14.7349310  59.8369310
  68.6239310  14.5579310  59.1019310  67.4459310  15.4149310  59.5129310
  68.0359310  14.7989310  59.7009310  50.8289310  14.2309310  57.5939310
  51.3859310  13.4719310  57.7659310  51.3969310  14.9849310  57.7499310
  50.9729310  14.2299310  57.6359310  49.7229310   6.8499310  64.0359310
  50.3199310   7.1059310  63.3319310  50.0259310   7.3449310  64.7979310
  49.8379310   6.9459310  64.0429310  52.4039310  10.3569310  67.8409310
  52.6629310  11.0499310  67.2329310  51.5319310  10.6159310  68.1399310
  52.3259310  10.4789310  67.8009310  66.0919310   7.9469310  64.8219310
  66.9449310   7.6059310  64.5519310  66.1139310   7.9179310  65.7779310
  66.2039310   7.8989310  64.9089310  59.0219310   4.8579310  72.7269310
  58.2679310   4.5279310  72.2379310  58.8209310   4.6599310  73.6409310
  58.8999310   4.7899310  72.7809310  64.2379310   8.6179310  60.0369310
  64.6339310   8.9589310  60.8389310  64.7289310   9.0369310  59.3299310
  64.3509310   8.7149310  60.0489310  63.9669310   2.7039310  71.9989310
  64.6599310   2.8979310  72.6309310  63.3309310   3.4099310  72.1169310
  63.9739310   2.8189310  72.0949310  64.4319310  14.9739310  69.4739310
  63.9589310  15.8069310  69.4669310  63.9009310  14.3929310  68.9299310
  64.3029310  15.0059310  69.4039310  53.9429310  13.8309310  51.7179310
  52.9889310  13.7629310  51.6859310  54.1319310  14.1379310  52.6039310
  53.8449310  13.8619310  51.8269310  58.7079310  11.2749310  44.8809310
  58.5339310  11.4359310  45.8089310  57.9429310  10.7889310  44.5749310
  58.5879310  11.2329310  44.9609310  55.2789310   6.1719310  40.2119310
  55.1249310   6.6289310  41.0389310  55.9909310   5.5619310  40.4039310
  55.3499310   6.1519310  40.3419310  65.4399310  12.3309310  38.3979310
  64.5779310  12.6589310  38.1419310  65.3439310  11.3789310  38.3969310
  65.3169310  12.2509310  38.3649310  52.1659310  12.4279310  45.1749310
  52.2039310  13.3209310  44.8309310  51.3669310  12.4069310  45.7009310
  52.0689310  12.5399310  45.1979310  56.8769310  14.2179310  41.8639310
  56.0779310  13.6909310  41.8739310  57.2209310  14.1149310  40.9769310
  56.8189310  14.1369310  41.7519310  60.7849310   9.2029310  44.3309310
  60.3589310   8.5959310  43.7269310  60.1219310   9.8699310  44.5089310
  60.6459310   9.2109310  44.2769310  67.6559310   4.1259310  45.4249310
  66.8769310   4.2359310  45.9699310  67.9999310   5.0119310  45.3159310
  67.5999310   4.2529310  45.4809310  58.9869310   7.4419310  52.8569310
  58.8589310   6.5769310  53.2459310  59.4299310   7.2669310  52.0259310
  59.0269310   7.3089310  52.7999310  61.8629310   8.3939310  39.8759310
  62.6329310   8.4149310  40.4429310  62.1819310   8.0269310  39.0519310
  62.0019310   8.3499310  39.8429310  67.5989310   8.0309310  41.6059310
  67.2329310   8.6719310  42.2159310  66.8339310   7.6089310  41.2139310
  67.4539310   8.0589310  41.6339310  65.5809310   9.6309310  38.6229310
  65.6229310   9.4969310  37.6759310  66.4669310   9.8979310  38.8659310
  65.6999310   9.6479310  38.5329310  50.9839310   8.1089310  54.0069310
  50.0629310   7.8889310  53.8669310  51.0639310   8.2159310  54.9539310
  50.8759310   8.0939310  54.1099310  62.5739310  11.7979310  45.2119310
  62.7499310  12.6479310  44.8089310  61.8149310  11.4609310  44.7379310
  62.4999310  11.8639310  45.0999310  62.3639310  15.1229310  46.4639310
  62.9499310  15.8599310  46.2889310  61.5819310  15.3089310  45.9449310
  62.3389310  15.2409310  46.3749310  54.6859310   2.3779310  44.9839310
  54.2789310   2.3769310  44.1169310  54.1999310   3.0409310  45.4749310
  54.5719310   2.4629310  44.9359310  61.1529310   3.2629310  54.0009310
  61.7389310   3.5759310  54.6899310  60.4269310   3.8879310  54.0009310
  61.1349310   3.3829310  54.0889310  58.7729310   3.7639310  43.5329310
  57.9479310   3.7459310  43.0479310  58.5219310   3.5779310  44.4379310
  58.6349310   3.7379310  43.5869310  55.8869310  13.4289310  48.1499310
  55.6259310  13.0539310  48.9909310  56.6179310  12.8839310  47.8609310
  55.9469310  13.3109310  48.2199310  54.1249310  11.6219310  46.8649310
  53.4009310  11.9249310  46.3169310  54.7189310  12.3719310  46.9129310
  54.1089310  11.7569310  46.8009310  50.6739310   1.7759310  57.0549310
  50.4759310   1.8569310  56.1229310  49.8799310   2.0789310  57.4959310
  50.5469310   1.8249310  56.9919310  53.5979310   5.3859310  38.2029310
  52.9949310   6.1229310  38.1069310  54.2269310   5.6759310  38.8639310
  53.6009310   5.5169310  38.2749310  58.0249310  13.8479310  39.4959310
  58.4839310  13.0259310  39.6679310  58.7229310  14.4879310  39.3569310
  58.1729310  13.8249310  39.4999310  56.7479310   4.3389310  48.4779310
  57.6289310   4.6309310  48.7099310  56.8339310   4.0049310  47.5849310
  56.8719310   4.3339310  48.3929310  50.6419310  10.8019310  55.8119310
  49.8799310  11.3699310  55.6949310  50.8469310  10.4919310  54.9299310
  50.5699310  10.8349310  55.6839310  52.7129310  12.0969310  57.1489310
  53.1959310  12.6579310  56.5419310  52.2699310  11.4609310  56.5879310
  52.7179310  12.0879310  56.9999310  56.3389310  13.8329310  55.9469310
  56.9129310  13.7459310  56.7079310  56.2969310  14.7749310  55.7849310
  56.4069310  13.9419310  56.0229310  66.1739310   8.1659310  48.7839310
  66.6139310   8.6729310  49.4669310  65.5019310   7.6689310  49.2499310
  66.1449310   8.1669310  48.9309310  67.3889310   9.9339310  51.0119310
  66.6749310  10.5389310  50.8129310  68.1049310  10.4969310  51.3089310
  67.3899310  10.0829310  51.0249310  56.6939310   7.6869310  55.8479310
  56.5369310   6.7429310  55.8119310  56.6049310   7.9789310  54.9409310
  56.6619310   7.6029310  55.7269310  60.9009310  10.9949310  39.9499310
  61.2049310  10.1019310  40.1059310  61.4279310  11.5349310  40.5389310
  61.0069310  10.9499310  40.0449310  66.1659310   2.3309310  47.8529310
  67.0779310   2.3419310  48.1459310  66.1659310   1.7459310  47.0949310
  66.2829310   2.2569310  47.7939310  64.0109310   6.6679310  49.7039310
  63.1359310   6.4109310  49.4139310  64.3629310   5.8849310  50.1279310
  63.9439310   6.5349310  49.7209310  53.7199310  13.5839310  54.8619310
  53.4679310  14.4879310  55.0529310  54.6249310  13.5189310  55.1649310
  53.8039310  13.6919310  54.9249310  58.3559310   3.1679310  46.1669310
  58.4419310   2.3839310  46.7099310  58.7959310   3.8549310  46.6669310
  58.4229310   3.1559310  46.2999310  67.0339310  11.9079310  41.5029310
  67.1549310  12.7829310  41.1349310  67.2429310  11.3139310  40.7819310
  67.0759310  11.9439310  41.3629310  51.4309310  15.3899310  42.6859310
  50.6499310  15.2589310  42.1479310  51.4009310  16.3149310  42.9299310
  51.3269310  15.4919310  42.6479310  61.4819310  11.1919310  54.6369310
  62.0639310  11.0279310  55.3779310  60.8889310  11.8779310  54.9449310
  61.4799310  11.2589310  54.7709310  57.7839310  11.6559310  47.3759310
  57.3039310  10.8479310  47.5529310  58.5139310  11.6419310  47.9949310
  57.8159310  11.5509310  47.4779310  71.1959310   4.5729310  45.7599310
  71.2099310   4.2599310  46.6649310  71.1469310   5.5259310  45.8369310
  71.1919310   4.6549310  45.8859310  60.5889310   2.5089310  39.6429310
  59.9629310   1.7849310  39.6669310  60.8069310   2.6679310  40.5609310
  60.5369310   2.4369310  39.7629310  57.3269310   4.1569310  51.7629310
  56.4819310   3.8369310  52.0799310  57.7999310   3.3659310  51.5039310
  57.2789310   4.0149310  51.7709310  54.2539310   9.3429310  56.0969310
  55.0649310   8.8549310  55.9549310  53.9849310   9.6199310  55.2209310
  54.3229310   9.3159310  55.9659310  53.1619310  13.9149310  41.2199310
  52.5799310  14.4129310  41.7929310  53.3909310  14.5259310  40.5199310
  53.1169310  14.0569310  41.2039310  66.7609310   5.4739310  39.6439310
  66.3039310   5.2329310  40.4499310  67.6869310   5.3339310  39.8429310
  66.8209310   5.4249310  39.7729310  56.5159310   8.3829310  53.1249310
  57.3959310   8.0099310  53.0729310  55.9779310   7.8019310  52.5879310
  56.5599310   8.2609310  53.0499310  65.5049310  12.0939310  51.4819310
  65.1539310  11.9909310  52.3669310  65.6529310  13.0359310  51.3919310
  65.4789310  12.2009310  51.5839310  67.6419310  13.8609310  53.3609310
  67.8399310  13.4659310  54.2109310  66.9709310  14.5159310  53.5519310
  67.5809310  13.8939310  53.4939310  62.9599310   6.6399310  52.7739310
  62.4029310   6.2459310  52.1019310  62.3839310   7.2499310  53.2339310
  62.8149310   6.6679310  52.7469310  66.8739310   5.9009310  55.9679310
  66.0509310   6.2409310  55.6189310  66.7299310   5.8449310  56.9129310
  66.7509310   5.9369310  56.0439310  60.7869310   2.6269310  42.3069310
  59.9639310   2.9099310  42.7029310  61.4649310   3.0129310  42.8619310
  60.7689310   2.7119310  42.4289310  53.7989310   6.2179310  50.3999310
  53.4219310   6.0909310  51.2699310  53.2359310   5.7069310  49.8179310
  53.6789310   6.1369310  50.4369310  62.8059310   7.7279310  45.8549310
  63.3509310   8.2289310  46.4619310  62.1119310   8.3349310  45.5979310
  62.7869310   7.8689310  45.8999310  50.7889310   9.2939310  46.6759310
  51.1829310   9.2239310  45.8059310  51.4009310   8.8389310  47.2529310
  50.9179310   9.2269310  46.6379310  65.5099310   4.9739310  42.0479310
  65.4669310   5.5929310  42.7779310  65.1439310   4.1629310  42.3999310
  65.4579310   4.9499310  42.1869310  60.2599310   5.8379310  42.5269310
  59.5879310   5.1569310  42.5569310  60.3389310   6.0549310  41.5979310
  60.1839310   5.7789310  42.4119310  61.4459310  14.8169310  51.6449310
  60.8969310  14.7479310  50.8649310  61.8099310  13.9399310  51.7609310
  61.4229310  14.6959310  51.5599310  55.8799310   4.8119310  55.5959310
  55.7649310   4.5279310  54.6889310  54.9889310   4.9149310  55.9289310
  55.7509310   4.7889310  55.5219310  54.9249310   3.1389310  50.4419310
  54.3349310   2.3999310  50.2899310  55.5369310   3.1109310  49.7069310
  54.9279310   3.0409310  50.3279310  56.3099310   9.3309310  48.4739310
  56.2699310   8.3759310  48.4369310  55.8549310   9.5589310  49.2839310
  56.2469310   9.2379310  48.5729310  64.2749310   5.9839310  55.1559310
  63.5839310   5.3439310  55.3239310  64.0669310   6.3399310  54.2929310
  64.1599310   5.9469310  55.0669310  49.8929310   5.0859310  42.2929310
  50.5579310   5.6859310  42.6309310  49.0609310   5.5199310  42.4819310
  49.8719310   5.2179310  42.3609310  52.2259310   9.5309310  44.4949310
  52.9049310   9.2509310  45.1089310  52.3239310  10.4809310  44.4459310
  52.3249310   9.6169310  44.5679310  57.6399310   8.2669310  39.5819310
  57.2569310   7.9579310  38.7609310  57.8789310   9.1779310  39.4069310
  57.6219310   8.3439310  39.4549310  60.1529310  11.9419310  48.8839310
  60.0889310  11.4219310  49.6859310  60.6979310  12.6909310  49.1269310
  60.2139310  11.9709310  49.0179310  65.6519310  10.8379310  45.5029310
  64.7369310  10.8479310  45.2199310  65.7739310   9.9699310  45.8879310
  65.5499310  10.7279310  45.5159310  53.3049310   2.8019310  39.2979310
  52.3799310   2.5589310  39.3359310  53.3009310   3.7219310  39.0329310
  53.1869310   2.8889310  39.2689310  55.2739310   7.1549310  42.5869310
  56.0969310   7.6409310  42.5489310  55.3249310   6.6599310  43.4039310
  55.3859310   7.1539310  42.6859310  51.9649310  15.0299310  46.6629310
  51.4229310  15.4529310  47.3299310  52.8639310  15.2269310  46.9249310
  52.0099310  15.1099310  46.7819310  57.5689310   8.7919310  42.5889310
  57.0459310   9.4949310  42.9749310  57.5809310   8.9879310  41.6529310
  57.5039310   8.9069310  42.5189310  64.6119310   3.6589310  38.7529310
  65.0899310   3.3059310  38.0039310  65.1139310   4.4309310  39.0159310
  64.7369310   3.7129310  38.6909310  53.5059310   9.0949310  53.5829310
  53.4679310   9.4119310  52.6809310  52.6339310   8.7359310  53.7479310
  53.3889310   9.0889310  53.4889310  57.4139310  10.8349310  52.1579310
  56.6309310  11.2409310  51.7889310  57.1259310   9.9639310  52.4309310
  57.2769310  10.7749310  52.1459310  51.1519310  12.8469310  48.9009310
  51.8069310  13.2079310  48.3039310  50.4739310  12.4919310  48.3259310
  51.1489310  12.8479310  48.7509310  56.4399310   6.7919310  50.6369310
  56.7649310   5.9889310  51.0439310  55.5709310   6.5599310  50.3109310
  56.3699310   6.6599310  50.6469310  52.0559310   7.7259310  56.6059310
  52.8589310   8.2359310  56.4959310  51.6059310   8.1439310  57.3399310
  52.1009310   7.8449310  56.6859310  62.5519310   4.8739310  45.8659310
  63.0499310   4.6669310  45.0749310  62.7359310   5.7989310  46.0299310
  62.6389310   4.9659310  45.7859310  57.1769310   3.6199310  39.6069310
  56.6959310   2.8029310  39.4759310  57.6109310   3.7789310  38.7689310
  57.1709310   3.5359310  39.4829310  51.1409310   8.6569310  40.0649310
  51.9079310   8.3339310  40.5399310  50.3989310   8.4179310  40.6199310
  51.1439310   8.5849310  40.1969310  67.2399310  15.6459310  47.9339310
  67.0929310  14.7029310  48.0149310  67.8939310  15.8439310  48.6049310
  67.3049310  15.5499310  48.0299310  68.5729310  11.9239310  46.7199310
  67.7289310  12.3369310  46.9039310  68.4409310  11.0019310  46.9379310
  68.4479310  11.8589310  46.7709310  50.4789310   2.4129310  48.7609310
  51.2769310   2.0629310  48.3659310  50.4589310   2.0329310  49.6389310
  50.5779310   2.3189310  48.8229310  59.8729310   5.4699310  46.4889310
  59.4659310   6.2299310  46.0729310  60.7349310   5.4049310  46.0789310
  59.9309310   5.5589310  46.3829310  64.4099310   6.7089310  43.9709310
  65.0839310   7.1209310  44.5109310  63.5999310   7.1549310  44.2169310
  64.3929310   6.8189310  44.0709310  52.5639310   7.1999310  47.4739310
  53.5209310   7.1839310  47.4549310  52.3189310   6.3859310  47.9139310
  52.6549310   7.0939310  47.5279310  68.0319310   6.1379310  48.9569310
  67.6429310   5.6639310  49.6929310  67.4969310   6.9269310  48.8709310
  67.9139310   6.1779310  49.0399310  61.4059310   2.6859310  47.8229310
  62.0319310   3.1359310  47.2559310  61.2639310   1.8389310  47.3989310
  61.4679310   2.6349310  47.6959310  59.9409310  10.5629310  51.3219310
  60.3339310  11.3839310  51.6179310  59.0279310  10.6179310  51.6039310
  59.8749310  10.6749310  51.3959310  53.9649310   2.7239310  42.2959310
  53.8749310   2.4529310  41.3829310  53.0669310   2.8809310  42.5889310
  53.8379310   2.7099310  42.2169310  65.1649310   3.8469310  50.4709310
  64.8999310   3.1949310  51.1209310  65.3839310   3.3339310  49.6929310
  65.1589310   3.6979310  50.4549310  55.9109310   5.6399310  44.6959310
  56.0989310   4.8879310  44.1339310  56.7669310   6.0309310  44.8659310
  56.0439310   5.5939310  44.6459310  58.3609310  10.8469310  38.9789310
  59.2049310  10.8089310  39.4299310  58.5839310  11.0519310  38.0709310
  58.4979310  10.8679310  38.9209310  55.4119310   6.6369310  47.2479310
  55.6689310   6.2189310  46.4259310  55.4959310   5.9449310  47.9039310
  55.4559310   6.4949310  47.2269310  62.7239310  11.0919310  47.7069310
  62.8219310  11.3389310  46.7869310  61.8699310  11.4419310  47.9589310
  62.6269310  11.1679310  47.6219310  60.1139310  15.5059310  45.0459310
  59.9289310  14.6789310  44.5999310  59.8019310  16.1789310  44.4409310
  60.0499310  15.4859310  44.9109310  61.7019310  14.7409310  38.1359310
  61.8599310  15.5799310  37.7029310  61.9639310  14.8879310  39.0449310
  61.7559310  14.8669310  38.1969310  63.8119310  13.5179310  48.2459310
  63.2679310  14.1179310  47.7349310  63.4209310  12.6569310  48.0999310
  63.6929310  13.4849310  48.1619310  67.5869310   4.9269310  51.8689310
  66.6909310   4.6019310  51.7819310  67.4869310   5.8219310  52.1939310
  67.4589310   4.9999310  51.8999310  57.9039310  15.8859310  47.2189310
  57.8699310  15.1989310  47.8839310  58.3799310  15.4909310  46.4889310
  57.9599310  15.7479310  47.2109310  59.7829310   6.6139310  39.9069310
  60.5129310   7.2339310  39.8959310  59.0009310   7.1649310  39.8759310
  59.7759310   6.7639310  39.9009310  59.4149310   3.9949310  49.0229310
  58.9659310   3.2409310  49.4049310  60.1369310   3.6149310  48.5229310
  59.4499310   3.8499310  49.0079310  60.9499310   8.1189310  50.7349310
  60.6739310   8.9429310  51.1369310  61.9009310   8.1059310  50.8439310
  61.0369310   8.2229310  50.7999310  60.3059310  15.3419310  48.9839310
  61.0959310  15.8799310  48.9299310  59.7059310  15.7339310  48.3499310
  60.3299310  15.4609310  48.8959310  52.3359310   5.9669310  52.8719310
  51.6569310   6.6059310  53.0919310  51.9269310   5.1179310  53.0349310
  52.1959310   5.9399310  52.9209310  63.2959310  13.9719310  43.8359310
  62.9279310  14.5529310  44.5009310  64.1869310  14.2949310  43.7019310
  63.3629310  14.0879310  43.9039310  61.4009310   6.4089310  48.8209310
  61.1329310   7.0519310  49.4779310  60.6019310   6.2269310  48.3249310
  61.2639310   6.4679310  48.8409310  49.9429310   4.0469310  55.4409310
  49.3429310   4.7799310  55.5819310  50.4899310   4.0299310  56.2269310
  49.9359310   4.1389310  55.5599310  51.2989310   2.9479310  43.4839310
  51.6989310   3.5329310  44.1279310  50.8349310   3.5329310  42.8849310
  51.2909310   3.0979310  43.4899310  61.3779310   4.7429310  51.3829310
  61.2149310   5.0519310  50.4919310  60.5169310   4.4789310  51.7059310
  61.2469310   4.7489310  51.3109310  54.1749310   9.6629310  39.8129310
  54.2609310   9.6119310  38.8609310  53.6219310  10.4309310  39.9619310
  54.1149310   9.7549310  39.7099310  61.3099310   8.4059310  53.9189310
  60.4919310   8.2499310  53.4479310  61.3579310   9.3579310  54.0079310
  61.2119310   8.5079310  53.8699310  65.6599310   3.1019310  55.1499310
  66.3729310   2.4699310  55.2449310  66.0999310   3.9389310  55.0039310
  65.8069310   3.1279310  55.1429310  51.6889310   4.8839310  48.6719310
  50.9099310   5.3899310  48.9029310  51.4269310   3.9709310  48.7949310
  51.5559310   4.8319310  48.7169310  67.1329310  14.3789310  50.7189310
  67.4149310  14.2829310  51.6289310  66.3519310  14.9299310  50.7679310
  67.0689310  14.4369310  50.8419310  54.7849310   9.0409310  45.7779310
  54.6979310   9.8209310  46.3269310  54.8569310   8.3169310  46.4009310
  54.7829310   9.0479310  45.9279310  54.8869310   4.1819310  52.9619310
  54.7959310   4.0619310  52.0169310  54.1629310   4.7599310  53.1999310
  54.7829310   4.2409310  52.8709310  67.0539310  13.1569310  44.1539310
  67.1239310  12.5279310  44.8709310  67.1199310  12.6249310  43.3609310
  67.0709310  13.0089310  44.1439310  56.5119310   3.7439310  42.2999310
  56.8849310   3.6789310  41.4209310  55.6069310   3.4479310  42.1989310
  56.4439310   3.6969310  42.1749310  56.2109310  10.9009310  40.7339310
  55.4789310  10.4119310  40.3579310  56.8709310  10.9139310  40.0419310
  56.2009310  10.8399310  40.5979310  51.1569310  14.2459310  51.3049310
  50.8639310  13.9729310  50.4349310  50.8489310  15.1479310  51.3889310
  51.0799310  14.3259310  51.2039310  59.7019310   4.3119310  37.9239310
  59.6829310   4.9619310  38.6259310  60.0569310   3.5239310  38.3359310
  59.7449310   4.2949310  38.0659310  55.0719310  11.6099310  50.7029310
  54.5019310  12.2969310  51.0499310  54.6199310  10.7939310  50.9169310
  54.9409310  11.5939310  50.7749310  61.6639310  13.1909310  41.7939310
  60.9789310  13.1189310  42.4589310  62.4619310  13.3689310  42.2909310
  61.6779310  13.2039310  41.9429310  64.8269310   2.3999310  42.8939310
  64.6059310   2.1499310  43.7919310  65.6429310   1.9339310  42.7109310
  64.9029310   2.3079310  42.9859310  62.6729310  12.1629310  38.0409310
  62.2729310  13.0309310  38.0909310  62.1969310  11.6419310  38.6879310
  62.5609310  12.2079310  38.1299310  56.0519310  10.4839310  43.8969310
  55.4159310  10.0289310  44.4479310  55.5639310  11.2179310  43.5239310
  55.9089310  10.5199310  43.9199310  61.9299310  12.1549310  52.1019310
  61.7269310  11.8449310  52.9839310  62.4439310  11.4469310  51.7119310
  61.9699310  12.0239310  52.1649310  67.5179310   2.4239310  40.7299310
  66.6949310   1.9369310  40.6819310  67.2659310   3.2879310  41.0579310
  67.3809310   2.4719310  40.7659310  64.5749310   9.7569310  54.7489310
  63.9349310   9.2239310  55.2209310  64.5369310   9.4339310  53.8479310
  64.4879310   9.6469310  54.6939310  58.3419310  12.1249310  54.8839310
  57.9549310  11.7599310  54.0879310  57.6939310  12.7539310  55.1989310
  58.2089310  12.1579310  54.8229310  50.7019310  11.4789310  52.2529310
  50.3199310  12.3219310  52.4969310  51.5259310  11.7049310  51.8219310
  50.7579310  11.6159310  52.2289310  67.2419310   7.5939310  52.5659310
  66.3509310   7.8099310  52.8439310  67.5189310   8.3469310  52.0439310
  67.1629310   7.7179310  52.5349310  66.3099310   9.6159310  42.9979310
  66.3319310   9.7319310  43.9479310  66.4829310  10.4889310  42.6469310
  66.3349310   9.7429310  43.0749310  65.6849310  15.5559310  43.3049310
  65.4209310  15.5209310  42.3859310  66.3069310  14.8349310  43.4039310
  65.7309310  15.4589310  43.1999310  62.8589310  15.5519310  40.8159310
  62.3429310  14.8669310  41.2419310  62.3759310  16.3589310  40.9899310
  62.7309310  15.5669310  40.8929310  51.3499310   3.4629310  53.1999310
  50.7839310   3.8239310  52.5179310  50.8539310   3.5789310  54.0099310
  51.2139310   3.5239310  53.2159310  62.5959310  17.0949310  49.1169310
  63.3709310  16.9389310  48.5779310  62.5649310  18.0459310  49.2229310
  62.6909310  17.1969310  49.0619310  59.1659310  13.5069310  43.3459310
  58.9279310  12.6939310  43.7899310  58.3609310  13.7849310  42.9089310
  59.0329310  13.4389310  43.3469310  64.3589310  12.9269310  54.6529310
  64.6289310  12.0229310  54.8129310  63.4069310  12.9139310  54.7539310
  64.2719310  12.8099310  54.6869310  64.6689310   8.6329310  52.3499310
  64.0589310   7.8969310  52.4059310  64.2369310   9.2569310  51.7669310
  64.5359310   8.6179310  52.2829310  53.7669310   9.2209310  50.7749310
  53.3059310   9.5649310  50.0099310  53.8479310   8.2829310  50.6029310
  53.7179310   9.1449310  50.6549310  51.9629310   6.8619310  42.9599310
  52.9189310   6.8939310  42.9869310  51.6919310   7.7789310  42.9979310
  52.0509310   6.9829310  42.9679310  56.8029310   2.3209310  55.9029310
  56.0379310   1.9239310  56.3209310  56.5489310   3.2319310  55.7549310
  56.6719310   2.3869310  55.9379310  62.6309310   4.4129310  43.3149310
  63.2509310   4.8569310  42.7359310  61.8209310   4.9169310  43.2299310
  62.6069310   4.5349310  43.2299310  49.2509310  10.4649310  39.2759310
  49.8789310   9.9419310  39.7749310  49.7449310  10.7709310  38.5149310
  49.3949310  10.4369310  39.2429310  54.9229310  12.5489310  42.5469310
  54.2229310  12.9469310  42.0299310  55.3549310  11.9459310  41.9409310
  54.8889310  12.5229310  42.4029310  63.5239310  10.4919310  50.3689310
  63.3509310  10.4149310  49.4309310  64.3069310  11.0389310  50.4239310
  63.6019310  10.5519310  50.2559310  58.3419310   6.8759310  44.6879310
  58.8559310   6.2759310  44.1479310  58.0679310   7.5659310  44.0839310
  58.3719310   6.8869310  44.5419310  65.3699310  15.4429310  53.9789310
  65.7789310  15.6149310  54.8269310  65.1009310  14.5259310  54.0239310
  65.3879310  15.3479310  54.0929310  68.0369310  14.7349310  40.9769310
  68.6239310  14.5579310  40.2419310  67.4459310  15.4149310  40.6529310
  68.0359310  14.7989310  40.8409310  50.8289310  14.2309310  38.7339310
  51.3859310  13.4719310  38.9059310  51.3969310  14.9849310  38.8899310
  50.9729310  14.2299310  38.7759310  67.8769310  13.0899310  55.9719310
  67.1049310  13.1209310  56.5359310  68.4939310  13.6999310  56.3779310
  67.8569310  13.1719310  56.0969310  62.7779310   8.2169310  56.0409310
  61.9669310   8.2549310  55.5339310  63.1419310   7.3539310  55.8459310
  62.7209310   8.1119310  55.9509310  49.7229310   6.8499310  45.1759310
  50.3199310   7.1059310  44.4719310  50.0259310   7.3449310  45.9379310
  49.8379310   6.9459310  45.1829310  52.4039310  10.3569310  48.9809310
  52.6629310  11.0499310  48.3729310  51.5319310  10.6159310  49.2799310
  52.3259310  10.4789310  48.9409310  66.0919310   7.9469310  45.9619310
  66.9449310   7.6059310  45.6919310  66.1139310   7.9179310  46.9179310
  66.2039310   7.8989310  46.0489310  59.0219310   4.8579310  53.8669310
  58.2679310   4.5279310  53.3779310  58.8209310   4.6599310  54.7809310
  58.8999310   4.7899310  53.9209310  62.5719310   4.1809310  55.9359310
  61.7879310   4.1419310  56.4839310  63.2089310   3.6299310  56.3899310
  62.5529310   4.1059310  56.0639310  64.2379310   8.6179310  41.1769310
  64.6339310   8.9589310  41.9789310  64.7289310   9.0369310  40.4699310
  64.3509310   8.7149310  41.1889310  63.9669310   2.7039310  53.1389310
  64.6599310   2.8979310  53.7709310  63.3309310   3.4099310  53.2569310
  63.9739310   2.8189310  53.2349310  64.4319310  14.9739310  50.6139310
  63.9589310  15.8069310  50.6069310  63.9009310  14.3929310  50.0699310
  64.3029310  15.0059310  50.5439310  53.9429310  13.8309310  32.8579310
  52.9889310  13.7629310  32.8259310  54.1319310  14.1379310  33.7439310
  53.8449310  13.8619310  32.9669310  58.7079310  11.2749310  26.0209310
  58.5339310  11.4359310  26.9489310  57.9429310  10.7889310  25.7149310
  58.5879310  11.2329310  26.1009310  55.2789310   6.1719310  21.3519310
  55.1249310   6.6289310  22.1789310  55.9909310   5.5619310  21.5439310
  55.3499310   6.1519310  21.4819310  65.4399310  12.3309310  19.5379310
  64.5779310  12.6589310  19.2819310  65.3439310  11.3789310  19.5369310
  65.3169310  12.2509310  19.5049310  52.1659310  12.4279310  26.3149310
  52.2039310  13.3209310  25.9709310  51.3669310  12.4069310  26.8409310
  52.0689310  12.5399310  26.3379310  56.8769310  14.2179310  23.0039310
  56.0779310  13.6909310  23.0139310  57.2209310  14.1149310  22.1169310
  56.8189310  14.1369310  22.8919310  60.7849310   9.2029310  25.4709310
  60.3589310   8.5959310  24.8669310  60.1219310   9.8699310  25.6489310
  60.6459310   9.2109310  25.4169310  67.6559310   4.1259310  26.5649310
  66.8769310   4.2359310  27.1099310  67.9999310   5.0119310  26.4559310
  67.5999310   4.2529310  26.6209310  58.9869310   7.4419310  33.9969310
  58.8589310   6.5769310  34.3859310  59.4299310   7.2669310  33.1659310
  59.0269310   7.3089310  33.9399310  61.8629310   8.3939310  21.0159310
  62.6329310   8.4149310  21.5829310  62.1819310   8.0269310  20.1919310
  62.0019310   8.3499310  20.9829310  67.5989310   8.0309310  22.7459310
  67.2329310   8.6719310  23.3559310  66.8339310   7.6089310  22.3539310
  67.4539310   8.0589310  22.7739310  65.5809310   9.6309310  19.7629310
  65.6229310   9.4969310  18.8159310  66.4669310   9.8979310  20.0059310
  65.6999310   9.6479310  19.6729310  50.9839310   8.1089310  35.1469310
  50.0629310   7.8889310  35.0069310  51.0639310   8.2159310  36.0939310
  50.8759310   8.0939310  35.2499310  62.5739310  11.7979310  26.3519310
  62.7499310  12.6479310  25.9489310  61.8149310  11.4609310  25.8779310
  62.4999310  11.8639310  26.2399310  62.3639310  15.1229310  27.6039310
  62.9499310  15.8599310  27.4289310  61.5819310  15.3089310  27.0849310
  62.3389310  15.2409310  27.5149310  54.6859310   2.3779310  26.1239310
  54.2789310   2.3769310  25.2569310  54.1999310   3.0409310  26.6149310
  54.5719310   2.4629310  26.0759310  61.1529310   3.2629310  35.1409310
  61.7389310   3.5759310  35.8299310  60.4269310   3.8879310  35.1409310
  61.1349310   3.3829310  35.2289310  58.7729310   3.7639310  24.6729310
  57.9479310   3.7459310  24.1879310  58.5219310   3.5779310  25.5779310
  58.6349310   3.7379310  24.7269310  55.8869310  13.4289310  29.2899310
  55.6259310  13.0539310  30.1309310  56.6179310  12.8839310  29.0009310
  55.9469310  13.3109310  29.3599310  54.1249310  11.6219310  28.0049310
  53.4009310  11.9249310  27.4569310  54.7189310  12.3719310  28.0529310
  54.1089310  11.7569310  27.9409310  50.6739310   1.7759310  38.1949310
  50.4759310   1.8569310  37.2629310  49.8799310   2.0789310  38.6359310
  50.5469310   1.8249310  38.1319310  53.5979310   5.3859310  19.3429310
  52.9949310   6.1229310  19.2469310  54.2269310   5.6759310  20.0039310
  53.6009310   5.5169310  19.4149310  58.0249310  13.8479310  20.6359310
  58.4839310  13.0259310  20.8079310  58.7229310  14.4879310  20.4969310
  58.1729310  13.8249310  20.6399310  56.7479310   4.3389310  29.6179310
  57.6289310   4.6309310  29.8499310  56.8339310   4.0049310  28.7249310
  56.8719310   4.3339310  29.5329310  50.6419310  10.8019310  36.9519310
  49.8799310  11.3699310  36.8349310  50.8469310  10.4919310  36.0699310
  50.5699310  10.8349310  36.8239310  52.7129310  12.0969310  38.2889310
  53.1959310  12.6579310  37.6819310  52.2699310  11.4609310  37.7279310
  52.7179310  12.0879310  38.1399310  56.3389310  13.8329310  37.0869310
  56.9129310  13.7459310  37.8479310  56.2969310  14.7749310  36.9249310
  56.4069310  13.9419310  37.1629310  66.1739310   8.1659310  29.9239310
  66.6139310   8.6729310  30.6069310  65.5019310   7.6689310  30.3899310
  66.1449310   8.1669310  30.0709310  67.3889310   9.9339310  32.1519310
  66.6749310  10.5389310  31.9529310  68.1049310  10.4969310  32.4489310
  67.3899310  10.0829310  32.1649310  56.6939310   7.6869310  36.9879310
  56.5369310   6.7429310  36.9519310  56.6049310   7.9789310  36.0809310
  56.6619310   7.6029310  36.8669310  60.9009310  10.9949310  21.0899310
  61.2049310  10.1019310  21.2459310  61.4279310  11.5349310  21.6789310
  61.0069310  10.9499310  21.1849310  66.1659310   2.3309310  28.9929310
  67.0779310   2.3419310  29.2859310  66.1659310   1.7459310  28.2349310
  66.2829310   2.2569310  28.9339310  64.0109310   6.6679310  30.8439310
  63.1359310   6.4109310  30.5539310  64.3629310   5.8849310  31.2679310
  63.9439310   6.5349310  30.8609310  53.7199310  13.5839310  36.0019310
  53.4679310  14.4879310  36.1929310  54.6249310  13.5189310  36.3049310
  53.8039310  13.6919310  36.0649310  58.3559310   3.1679310  27.3069310
  58.4419310   2.3839310  27.8499310  58.7959310   3.8549310  27.8069310
  58.4229310   3.1559310  27.4399310  67.0339310  11.9079310  22.6429310
  67.1549310  12.7829310  22.2749310  67.2429310  11.3139310  21.9219310
  67.0759310  11.9439310  22.5029310  51.4309310  15.3899310  23.8259310
  50.6499310  15.2589310  23.2879310  51.4009310  16.3149310  24.0699310
  51.3269310  15.4919310  23.7879310  61.4819310  11.1919310  35.7769310
  62.0639310  11.0279310  36.5179310  60.8889310  11.8779310  36.0849310
  61.4799310  11.2589310  35.9109310  57.7839310  11.6559310  28.5159310
  57.3039310  10.8479310  28.6929310  58.5139310  11.6419310  29.1349310
  57.8159310  11.5509310  28.6179310  71.1959310   4.5729310  26.8999310
  71.2099310   4.2599310  27.8049310  71.1469310   5.5259310  26.9769310
  71.1919310   4.6549310  27.0259310  60.5889310   2.5089310  20.7829310
  59.9629310   1.7849310  20.8069310  60.8069310   2.6679310  21.7009310
  60.5369310   2.4369310  20.9029310  57.3269310   4.1569310  32.9029310
  56.4819310   3.8369310  33.2199310  57.7999310   3.3659310  32.6439310
  57.2789310   4.0149310  32.9109310  54.2539310   9.3429310  37.2369310
  55.0649310   8.8549310  37.0949310  53.9849310   9.6199310  36.3609310
  54.3229310   9.3159310  37.1059310  53.1619310  13.9149310  22.3599310
  52.5799310  14.4129310  22.9329310  53.3909310  14.5259310  21.6599310
  53.1169310  14.0569310  22.3439310  66.7609310   5.4739310  20.7839310
  66.3039310   5.2329310  21.5899310  67.6869310   5.3339310  20.9829310
  66.8209310   5.4249310  20.9129310  56.5159310   8.3829310  34.2649310
  57.3959310   8.0099310  34.2129310  55.9779310   7.8019310  33.7279310
  56.5599310   8.2609310  34.1899310  65.5049310  12.0939310  32.6219310
  65.1539310  11.9909310  33.5069310  65.6529310  13.0359310  32.5319310
  65.4789310  12.2009310  32.7239310  67.6419310  13.8609310  34.5009310
  67.8399310  13.4659310  35.3509310  66.9709310  14.5159310  34.6919310
  67.5809310  13.8939310  34.6339310  62.9599310   6.6399310  33.9139310
  62.4029310   6.2459310  33.2419310  62.3839310   7.2499310  34.3739310
  62.8149310   6.6679310  33.8869310  66.8739310   5.9009310  37.1079310
  66.0509310   6.2409310  36.7589310  66.7299310   5.8449310  38.0529310
  66.7509310   5.9369310  37.1839310  60.7869310   2.6269310  23.4469310
  59.9639310   2.9099310  23.8429310  61.4649310   3.0129310  24.0019310
  60.7689310   2.7119310  23.5689310  53.7989310   6.2179310  31.5399310
  53.4219310   6.0909310  32.4099310  53.2359310   5.7069310  30.9579310
  53.6789310   6.1369310  31.5769310  62.8059310   7.7279310  26.9949310
  63.3509310   8.2289310  27.6019310  62.1119310   8.3349310  26.7379310
  62.7869310   7.8689310  27.0399310  50.7889310   9.2939310  27.8159310
  51.1829310   9.2239310  26.9459310  51.4009310   8.8389310  28.3929310
  50.9179310   9.2269310  27.7779310  65.5099310   4.9739310  23.1879310
  65.4669310   5.5929310  23.9179310  65.1439310   4.1629310  23.5399310
  65.4579310   4.9499310  23.3269310  60.2599310   5.8379310  23.6669310
  59.5879310   5.1569310  23.6969310  60.3389310   6.0549310  22.7379310
  60.1839310   5.7789310  23.5519310  61.4459310  14.8169310  32.7849310
  60.8969310  14.7479310  32.0049310  61.8099310  13.9399310  32.9009310
  61.4229310  14.6959310  32.6999310  55.8799310   4.8119310  36.7359310
  55.7649310   4.5279310  35.8289310  54.9889310   4.9149310  37.0689310
  55.7509310   4.7889310  36.6619310  54.9249310   3.1389310  31.5819310
  54.3349310   2.3999310  31.4299310  55.5369310   3.1109310  30.8469310
  54.9279310   3.0409310  31.4679310  56.3099310   9.3309310  29.6139310
  56.2699310   8.3759310  29.5769310  55.8549310   9.5589310  30.4239310
  56.2469310   9.2379310  29.7129310  64.2749310   5.9839310  36.2959310
  63.5839310   5.3439310  36.4639310  64.0669310   6.3399310  35.4329310
  64.1599310   5.9469310  36.2069310  49.8929310   5.0859310  23.4329310
  50.5579310   5.6859310  23.7709310  49.0609310   5.5199310  23.6219310
  49.8719310   5.2179310  23.5009310  52.2259310   9.5309310  25.6349310
  52.9049310   9.2509310  26.2489310  52.3239310  10.4809310  25.5859310
  52.3249310   9.6169310  25.7079310  57.6399310   8.2669310  20.7219310
  57.2569310   7.9579310  19.9009310  57.8789310   9.1779310  20.5469310
  57.6219310   8.3439310  20.5949310  60.1529310  11.9419310  30.0239310
  60.0889310  11.4219310  30.8259310  60.6979310  12.6909310  30.2669310
  60.2139310  11.9709310  30.1579310  65.6519310  10.8379310  26.6429310
  64.7369310  10.8479310  26.3599310  65.7739310   9.9699310  27.0279310
  65.5499310  10.7279310  26.6559310  53.3049310   2.8019310  20.4379310
  52.3799310   2.5589310  20.4759310  53.3009310   3.7219310  20.1729310
  53.1869310   2.8889310  20.4089310  55.2739310   7.1549310  23.7269310
  56.0969310   7.6409310  23.6889310  55.3249310   6.6599310  24.5439310
  55.3859310   7.1539310  23.8259310  51.9649310  15.0299310  27.8029310
  51.4229310  15.4529310  28.4699310  52.8639310  15.2269310  28.0649310
  52.0099310  15.1099310  27.9219310  57.5689310   8.7919310  23.7289310
  57.0459310   9.4949310  24.1149310  57.5809310   8.9879310  22.7929310
  57.5039310   8.9069310  23.6589310  64.6119310   3.6589310  19.8929310
  65.0899310   3.3059310  19.1439310  65.1139310   4.4309310  20.1559310
  64.7369310   3.7129310  19.8309310  53.5059310   9.0949310  34.7229310
  53.4679310   9.4119310  33.8209310  52.6339310   8.7359310  34.8879310
  53.3889310   9.0889310  34.6289310  57.4139310  10.8349310  33.2979310
  56.6309310  11.2409310  32.9289310  57.1259310   9.9639310  33.5709310
  57.2769310  10.7749310  33.2859310  51.1519310  12.8469310  30.0409310
  51.8069310  13.2079310  29.4439310  50.4739310  12.4919310  29.4659310
  51.1489310  12.8479310  29.8909310  56.4399310   6.7919310  31.7769310
  56.7649310   5.9889310  32.1839310  55.5709310   6.5599310  31.4509310
  56.3699310   6.6599310  31.7869310  52.0559310   7.7259310  37.7459310
  52.8589310   8.2359310  37.6359310  51.6059310   8.1439310  38.4799310
  52.1009310   7.8449310  37.8259310  62.5519310   4.8739310  27.0059310
  63.0499310   4.6669310  26.2149310  62.7359310   5.7989310  27.1699310
  62.6389310   4.9659310  26.9259310  57.1769310   3.6199310  20.7469310
  56.6959310   2.8029310  20.6159310  57.6109310   3.7789310  19.9089310
  57.1709310   3.5359310  20.6229310  51.1409310   8.6569310  21.2049310
  51.9079310   8.3339310  21.6799310  50.3989310   8.4179310  21.7599310
  51.1439310   8.5849310  21.3369310  67.2399310  15.6459310  29.0739310
  67.0929310  14.7029310  29.1549310  67.8939310  15.8439310  29.7449310
  67.3049310  15.5499310  29.1699310  68.5729310  11.9239310  27.8599310
  67.7289310  12.3369310  28.0439310  68.4409310  11.0019310  28.0779310
  68.4479310  11.8589310  27.9109310  50.4789310   2.4129310  29.9009310
  51.2769310   2.0629310  29.5059310  50.4589310   2.0329310  30.7789310
  50.5779310   2.3189310  29.9629310  59.8729310   5.4699310  27.6289310
  59.4659310   6.2299310  27.2129310  60.7349310   5.4049310  27.2189310
  59.9309310   5.5589310  27.5229310  64.4099310   6.7089310  25.1109310
  65.0839310   7.1209310  25.6509310  63.5999310   7.1549310  25.3569310
  64.3929310   6.8189310  25.2109310  52.5639310   7.1999310  28.6139310
  53.5209310   7.1839310  28.5949310  52.3189310   6.3859310  29.0539310
  52.6549310   7.0939310  28.6679310  68.0319310   6.1379310  30.0969310
  67.6429310   5.6639310  30.8329310  67.4969310   6.9269310  30.0109310
  67.9139310   6.1779310  30.1799310  61.4059310   2.6859310  28.9629310
  62.0319310   3.1359310  28.3959310  61.2639310   1.8389310  28.5389310
  61.4679310   2.6349310  28.8359310  59.9409310  10.5629310  32.4619310
  60.3339310  11.3839310  32.7579310  59.0279310  10.6179310  32.7439310
  59.8749310  10.6749310  32.5359310  53.9649310   2.7239310  23.4359310
  53.8749310   2.4529310  22.5229310  53.0669310   2.8809310  23.7289310
  53.8379310   2.7099310  23.3569310  65.1649310   3.8469310  31.6109310
  64.8999310   3.1949310  32.2609310  65.3839310   3.3339310  30.8329310
  65.1589310   3.6979310  31.5949310  55.9109310   5.6399310  25.8359310
  56.0989310   4.8879310  25.2739310  56.7669310   6.0309310  26.0059310
  56.0439310   5.5939310  25.7859310  58.3609310  10.8469310  20.1189310
  59.2049310  10.8089310  20.5699310  58.5839310  11.0519310  19.2109310
  58.4979310  10.8679310  20.0609310  55.4119310   6.6369310  28.3879310
  55.6689310   6.2189310  27.5659310  55.4959310   5.9449310  29.0439310
  55.4559310   6.4949310  28.3669310  62.7239310  11.0919310  28.8469310
  62.8219310  11.3389310  27.9269310  61.8699310  11.4419310  29.0989310
  62.6269310  11.1679310  28.7619310  60.1139310  15.5059310  26.1859310
  59.9289310  14.6789310  25.7399310  59.8019310  16.1789310  25.5809310
  60.0499310  15.4859310  26.0509310  61.7019310  14.7409310  19.2759310
  61.8599310  15.5799310  18.8429310  61.9639310  14.8879310  20.1849310
  61.7559310  14.8669310  19.3369310  63.8119310  13.5179310  29.3859310
  63.2679310  14.1179310  28.8749310  63.4209310  12.6569310  29.2399310
  63.6929310  13.4849310  29.3019310  67.5869310   4.9269310  33.0089310
  66.6909310   4.6019310  32.9219310  67.4869310   5.8219310  33.3339310
  67.4589310   4.9999310  33.0399310  57.9039310  15.8859310  28.3589310
  57.8699310  15.1989310  29.0239310  58.3799310  15.4909310  27.6289310
  57.9599310  15.7479310  28.3509310  59.7829310   6.6139310  21.0469310
  60.5129310   7.2339310  21.0359310  59.0009310   7.1649310  21.0159310
  59.7759310   6.7639310  21.0409310  59.4149310   3.9949310  30.1629310
  58.9659310   3.2409310  30.5449310  60.1369310   3.6149310  29.6629310
  59.4499310   3.8499310  30.1479310  60.9499310   8.1189310  31.8749310
  60.6739310   8.9429310  32.2769310  61.9009310   8.1059310  31.9839310
  61.0369310   8.2229310  31.9399310  60.3059310  15.3419310  30.1239310
  61.0959310  15.8799310  30.0699310  59.7059310  15.7339310  29.4899310
  60.3299310  15.4609310  30.0359310  52.3359310   5.9669310  34.0119310
  51.6569310   6.6059310  34.2319310  51.9269310   5.1179310  34.1749310
  52.1959310   5.9399310  34.0609310  63.2959310  13.9719310  24.9759310
  62.9279310  14.5529310  25.6409310  64.1869310  14.2949310  24.8419310
  63.3629310  14.0879310  25.0439310  61.4009310   6.4089310  29.9609310
  61.1329310   7.0519310  30.6179310  60.6019310   6.2269310  29.4649310
  61.2639310   6.4679310  29.9809310  49.9429310   4.0469310  36.5809310
  49.3429310   4.7799310  36.7219310  50.4899310   4.0299310  37.3669310
  49.9359310   4.1389310  36.6999310  51.2989310   2.9479310  24.6239310
  51.6989310   3.5329310  25.2679310  50.8349310   3.5329310  24.0249310
  51.2909310   3.0979310  24.6299310  61.3779310   4.7429310  32.5229310
  61.2149310   5.0519310  31.6319310  60.5169310   4.4789310  32.8459310
  61.2469310   4.7489310  32.4509310  54.1749310   9.6629310  20.9529310
  54.2609310   9.6119310  20.0009310  53.6219310  10.4309310  21.1019310
  54.1149310   9.7549310  20.8499310  61.3099310   8.4059310  35.0589310
  60.4919310   8.2499310  34.5879310  61.3579310   9.3579310  35.1479310
  61.2119310   8.5079310  35.0099310  65.6599310   3.1019310  36.2899310
  66.3729310   2.4699310  36.3849310  66.0999310   3.9389310  36.1439310
  65.8069310   3.1279310  36.2829310  51.6889310   4.8839310  29.8119310
  50.9099310   5.3899310  30.0429310  51.4269310   3.9709310  29.9349310
  51.5559310   4.8319310  29.8569310  67.1329310  14.3789310  31.8589310
  67.4149310  14.2829310  32.7689310  66.3519310  14.9299310  31.9079310
  67.0689310  14.4369310  31.9819310  54.7849310   9.0409310  26.9179310
  54.6979310   9.8209310  27.4669310  54.8569310   8.3169310  27.5409310
  54.7829310   9.0479310  27.0679310  54.8869310   4.1819310  34.1019310
  54.7959310   4.0619310  33.1569310  54.1629310   4.7599310  34.3399310
  54.7829310   4.2409310  34.0109310  67.0539310  13.1569310  25.2939310
  67.1239310  12.5279310  26.0109310  67.1199310  12.6249310  24.5009310
  67.0709310  13.0089310  25.2839310  56.5119310   3.7439310  23.4399310
  56.8849310   3.6789310  22.5609310  55.6069310   3.4479310  23.3389310
  56.4439310   3.6969310  23.3149310  56.2109310  10.9009310  21.8739310
  55.4789310  10.4119310  21.4979310  56.8709310  10.9139310  21.1819310
  56.2009310  10.8399310  21.7379310  51.1569310  14.2459310  32.4449310
  50.8639310  13.9729310  31.5749310  50.8489310  15.1479310  32.5289310
  51.0799310  14.3259310  32.3439310  59.7019310   4.3119310  19.0639310
  59.6829310   4.9619310  19.7659310  60.0569310   3.5239310  19.4759310
  59.7449310   4.2949310  19.2059310  55.0719310  11.6099310  31.8429310
  54.5019310  12.2969310  32.1899310  54.6199310  10.7939310  32.0569310
  54.9409310  11.5939310  31.9149310  61.6639310  13.1909310  22.9339310
  60.9789310  13.1189310  23.5989310  62.4619310  13.3689310  23.4309310
  61.6779310  13.2039310  23.0829310  64.8269310   2.3999310  24.0339310
  64.6059310   2.1499310  24.9319310  65.6429310   1.9339310  23.8509310
  64.9029310   2.3079310  24.1259310  62.6729310  12.1629310  19.1809310
  62.2729310  13.0309310  19.2309310  62.1969310  11.6419310  19.8279310
  62.5609310  12.2079310  19.2699310  56.0519310  10.4839310  25.0369310
  55.4159310  10.0289310  25.5879310  55.5639310  11.2179310  24.6639310
  55.9089310  10.5199310  25.0599310  61.9299310  12.1549310  33.2419310
  61.7269310  11.8449310  34.1239310  62.4439310  11.4469310  32.8519310
  61.9699310  12.0239310  33.3049310  67.5179310   2.4239310  21.8699310
  66.6949310   1.9369310  21.8219310  67.2659310   3.2879310  22.1979310
  67.3809310   2.4719310  21.9059310  64.5749310   9.7569310  35.8889310
  63.9349310   9.2239310  36.3609310  64.5369310   9.4339310  34.9879310
  64.4879310   9.6469310  35.8339310  58.3419310  12.1249310  36.0239310
  57.9549310  11.7599310  35.2279310  57.6939310  12.7539310  36.3389310
  58.2089310  12.1579310  35.9629310  50.7019310  11.4789310  33.3929310
  50.3199310  12.3219310  33.6369310  51.5259310  11.7049310  32.9619310
  50.7579310  11.6159310  33.3689310  67.2419310   7.5939310  33.7059310
  66.3509310   7.8099310  33.9839310  67.5189310   8.3469310  33.1839310
  67.1629310   7.7179310  33.6749310  66.3099310   9.6159310  24.1379310
  66.3319310   9.7319310  25.0879310  66.4829310  10.4889310  23.7869310
  66.3349310   9.7429310  24.2149310  65.6849310  15.5559310  24.4449310
  65.4209310  15.5209310  23.5259310  66.3069310  14.8349310  24.5439310
  65.7309310  15.4589310  24.3399310  62.8589310  15.5519310  21.9559310
  62.3429310  14.8669310  22.3819310  62.3759310  16.3589310  22.1299310
  62.7309310  15.5669310  22.0329310  51.3499310   3.4629310  34.3399310
  50.7839310   3.8239310  33.6579310  50.8539310   3.5789310  35.1499310
  51.2139310   3.5239310  34.3559310  62.5959310  17.0949310  30.2569310
  63.3709310  16.9389310  29.7179310  62.5649310  18.0459310  30.3629310
  62.6909310  17.1969310  30.2019310  59.1659310  13.5069310  24.4859310
  58.9279310  12.6939310  24.9299310  58.3609310  13.7849310  24.0489310
  59.0329310  13.4389310  24.4869310  64.3589310  12.9269310  35.7929310
  64.6289310  12.0229310  35.9529310  63.4069310  12.9139310  35.8939310
  64.2719310  12.8099310  35.8269310  64.6689310   8.6329310  33.4899310
  64.0589310   7.8969310  33.5459310  64.2369310   9.2569310  32.9069310
  64.5359310   8.6179310  33.4229310  53.7669310   9.2209310  31.9149310
  53.3059310   9.5649310  31.1499310  53.8479310   8.2829310  31.7429310
  53.7179310   9.1449310  31.7949310  51.9629310   6.8619310  24.0999310
  52.9189310   6.8939310  24.1269310  51.6919310   7.7789310  24.1379310
  52.0509310   6.9829310  24.1079310  56.8029310   2.3209310  37.0429310
  56.0379310   1.9239310  37.4609310  56.5489310   3.2319310  36.8949310
  56.6719310   2.3869310  37.0779310  62.6309310   4.4129310  24.4549310
  63.2509310   4.8569310  23.8759310  61.8209310   4.9169310  24.3699310
  62.6069310   4.5349310  24.3699310  49.2509310  10.4649310  20.4159310
  49.8789310   9.9419310  20.9149310  49.7449310  10.7709310  19.6549310
  49.3949310  10.4369310  20.3829310  54.9229310  12.5489310  23.6869310
  54.2229310  12.9469310  23.1699310  55.3549310  11.9459310  23.0809310
  54.8889310  12.5229310  23.5429310  63.5239310  10.4919310  31.5089310
  63.3509310  10.4149310  30.5709310  64.3069310  11.0389310  31.5639310
  63.6019310  10.5519310  31.3959310  58.3419310   6.8759310  25.8279310
  58.8559310   6.2759310  25.2879310  58.0679310   7.5659310  25.2239310
  58.3719310   6.8869310  25.6819310  65.3699310  15.4429310  35.1189310
  65.7789310  15.6149310  35.9669310  65.1009310  14.5259310  35.1639310
  65.3879310  15.3479310  35.2329310  68.0369310  14.7349310  22.1169310
  68.6239310  14.5579310  21.3819310  67.4459310  15.4149310  21.7929310
  68.0359310  14.7989310  21.9809310  50.8289310  14.2309310  19.8739310
  51.3859310  13.4719310  20.0459310  51.3969310  14.9849310  20.0299310
  50.9729310  14.2299310  19.9159310  67.8769310  13.0899310  37.1119310
  67.1049310  13.1209310  37.6759310  68.4939310  13.6999310  37.5179310
  67.8569310  13.1719310  37.2369310  62.7779310   8.2169310  37.1809310
  61.9669310   8.2549310  36.6739310  63.1419310   7.3539310  36.9859310
  62.7209310   8.1119310  37.0909310  49.7229310   6.8499310  26.3159310
  50.3199310   7.1059310  25.6119310  50.0259310   7.3449310  27.0779310
  49.8379310   6.9459310  26.3229310  52.4039310  10.3569310  30.1209310
  52.6629310  11.0499310  29.5129310  51.5319310  10.6159310  30.4199310
  52.3259310  10.4789310  30.0809310  66.0919310   7.9469310  27.1019310
  66.9449310   7.6059310  26.8319310  66.1139310   7.9179310  28.0579310
  66.2039310   7.8989310  27.1889310  59.0219310   4.8579310  35.0069310
  58.2679310   4.5279310  34.5179310  58.8209310   4.6599310  35.9209310
  58.8999310   4.7899310  35.0609310  62.5719310   4.1809310  37.0759310
  61.7879310   4.1419310  37.6239310  63.2089310   3.6299310  37.5299310
  62.5529310   4.1059310  37.2039310  64.2379310   8.6179310  22.3169310
  64.6339310   8.9589310  23.1189310  64.7289310   9.0369310  21.6099310
  64.3509310   8.7149310  22.3289310  63.9669310   2.7039310  34.2789310
  64.6599310   2.8979310  34.9109310  63.3309310   3.4099310  34.3969310
  63.9739310   2.8189310  34.3749310  64.4319310  14.9739310  31.7539310
  63.9589310  15.8069310  31.7469310  63.9009310  14.3929310  31.2099310
  64.3029310  15.0059310  31.6839310  53.9429310  13.8309310  13.9979310
  52.9889310  13.7629310  13.9659310  54.1319310  14.1379310  14.8839310
  53.8449310  13.8619310  14.1069310  58.7079310  11.2749310   7.1609310
  58.5339310  11.4359310   8.0889310  57.9429310  10.7889310   6.8549310
  58.5879310  11.2329310   7.2409310  55.2789310   6.1719310   2.4919310
  55.1249310   6.6289310   3.3189310  55.9909310   5.5619310   2.6839310
  55.3499310   6.1519310   2.6219310  52.1659310  12.4279310   7.4549310
  52.2039310  13.3209310   7.1109310  51.3669310  12.4069310   7.9809310
  52.0689310  12.5399310   7.4779310  56.8769310  14.2179310   4.1439310
  56.0779310  13.6909310   4.1539310  57.2209310  14.1149310   3.2569310
  56.8189310  14.1369310   4.0319310  60.7849310   9.2029310   6.6109310
  60.3589310   8.5959310   6.0069310  60.1219310   9.8699310   6.7889310
  60.6459310   9.2109310   6.5569310  67.6559310   4.1259310   7.7049310
  66.8769310   4.2359310   8.2499310  67.9999310   5.0119310   7.5959310
  67.5999310   4.2529310   7.7609310  58.9869310   7.4419310  15.1369310
  58.8589310   6.5769310  15.5259310  59.4299310   7.2669310  14.3059310
  59.0269310   7.3089310  15.0799310  67.5989310   8.0309310   3.8859310
  67.2329310   8.6719310   4.4959310  66.8339310   7.6089310   3.4939310
  67.4539310   8.0589310   3.9139310  50.9839310   8.1089310  16.2869310
  50.0629310   7.8889310  16.1469310  51.0639310   8.2159310  17.2339310
  50.8759310   8.0939310  16.3899310  62.5739310  11.7979310   7.4919310
  62.7499310  12.6479310   7.0889310  61.8149310  11.4609310   7.0179310
  62.4999310  11.8639310   7.3799310  62.3639310  15.1229310   8.7439310
  62.9499310  15.8599310   8.5689310  61.5819310  15.3089310   8.2249310
  62.3389310  15.2409310   8.6549310  54.6859310   2.3779310   7.2639310
  54.2789310   2.3769310   6.3969310  54.1999310   3.0409310   7.7549310
  54.5719310   2.4629310   7.2159310  61.1529310   3.2629310  16.2809310
  61.7389310   3.5759310  16.9699310  60.4269310   3.8879310  16.2809310
  61.1349310   3.3829310  16.3689310  58.7729310   3.7639310   5.8129310
  57.9479310   3.7459310   5.3279310  58.5219310   3.5779310   6.7179310
  58.6349310   3.7379310   5.8669310  55.8869310  13.4289310  10.4299310
  55.6259310  13.0539310  11.2709310  56.6179310  12.8839310  10.1409310
  55.9469310  13.3109310  10.4999310  54.1249310  11.6219310   9.1449310
  53.4009310  11.9249310   8.5969310  54.7189310  12.3719310   9.1929310
  54.1089310  11.7569310   9.0809310  50.6739310   1.7759310  19.3349310
  50.4759310   1.8569310  18.4029310  49.8799310   2.0789310  19.7759310
  50.5469310   1.8249310  19.2719310  58.0249310  13.8479310   1.7759310
  58.4839310  13.0259310   1.9479310  58.7229310  14.4879310   1.6369310
  58.1729310  13.8249310   1.7799310  56.7479310   4.3389310  10.7579310
  57.6289310   4.6309310  10.9899310  56.8339310   4.0049310   9.8649310
  56.8719310   4.3339310  10.6729310  50.6419310  10.8019310  18.0919310
  49.8799310  11.3699310  17.9749310  50.8469310  10.4919310  17.2099310
  50.5699310  10.8349310  17.9639310  52.7129310  12.0969310  19.4289310
  53.1959310  12.6579310  18.8219310  52.2699310  11.4609310  18.8679310
  52.7179310  12.0879310  19.2799310  56.3389310  13.8329310  18.2269310
  56.9129310  13.7459310  18.9879310  56.2969310  14.7749310  18.0649310
  56.4069310  13.9419310  18.3029310  66.1739310   8.1659310  11.0639310
  66.6139310   8.6729310  11.7469310  65.5019310   7.6689310  11.5299310
  66.1449310   8.1669310  11.2109310  67.3889310   9.9339310  13.2919310
  66.6749310  10.5389310  13.0929310  68.1049310  10.4969310  13.5889310
  67.3899310  10.0829310  13.3049310  56.6939310   7.6869310  18.1279310
  56.5369310   6.7429310  18.0919310  56.6049310   7.9789310  17.2209310
  56.6619310   7.6029310  18.0069310  60.9009310  10.9949310   2.2299310
  61.2049310  10.1019310   2.3859310  61.4279310  11.5349310   2.8189310
  61.0069310  10.9499310   2.3249310  66.1659310   2.3309310  10.1329310
  67.0779310   2.3419310  10.4259310  66.1659310   1.7459310   9.3749310
  66.2829310   2.2569310  10.0739310  64.0109310   6.6679310  11.9839310
  63.1359310   6.4109310  11.6939310  64.3629310   5.8849310  12.4079310
  63.9439310   6.5349310  12.0009310  53.7199310  13.5839310  17.1419310
  53.4679310  14.4879310  17.3329310  54.6249310  13.5189310  17.4449310
  53.8039310  13.6919310  17.2049310  58.3559310   3.1679310   8.4469310
  58.4419310   2.3839310   8.9899310  58.7959310   3.8549310   8.9469310
  58.4229310   3.1559310   8.5799310  67.0339310  11.9079310   3.7829310
  67.1549310  12.7829310   3.4149310  67.2429310  11.3139310   3.0619310
  67.0759310  11.9439310   3.6429310  51.4309310  15.3899310   4.9659310
  50.6499310  15.2589310   4.4279310  51.4009310  16.3149310   5.2099310
  51.3269310  15.4919310   4.9279310  61.4819310  11.1919310  16.9169310
  62.0639310  11.0279310  17.6579310  60.8889310  11.8779310  17.2249310
  61.4799310  11.2589310  17.0509310  57.7839310  11.6559310   9.6559310
  57.3039310  10.8479310   9.8329310  58.5139310  11.6419310  10.2749310
  57.8159310  11.5509310   9.7579310  71.1959310   4.5729310   8.0399310
  71.2099310   4.2599310   8.9449310  71.1469310   5.5259310   8.1169310
  71.1919310   4.6549310   8.1659310  60.5889310   2.5089310   1.9229310
  59.9629310   1.7849310   1.9469310  60.8069310   2.6679310   2.8409310
  60.5369310   2.4369310   2.0429310  57.3269310   4.1569310  14.0429310
  56.4819310   3.8369310  14.3599310  57.7999310   3.3659310  13.7839310
  57.2789310   4.0149310  14.0509310  54.2539310   9.3429310  18.3769310
  55.0649310   8.8549310  18.2349310  53.9849310   9.6199310  17.5009310
  54.3229310   9.3159310  18.2459310  53.1619310  13.9149310   3.4999310
  52.5799310  14.4129310   4.0729310  53.3909310  14.5259310   2.7999310
  53.1169310  14.0569310   3.4839310  66.7609310   5.4739310   1.9239310
  66.3039310   5.2329310   2.7299310  67.6869310   5.3339310   2.1229310
  66.8209310   5.4249310   2.0529310  56.5159310   8.3829310  15.4049310
  57.3959310   8.0099310  15.3529310  55.9779310   7.8019310  14.8679310
  56.5599310   8.2609310  15.3299310  65.5049310  12.0939310  13.7619310
  65.1539310  11.9909310  14.6469310  65.6529310  13.0359310  13.6719310
  65.4789310  12.2009310  13.8639310  67.6419310  13.8609310  15.6409310
  67.8399310  13.4659310  16.4909310  66.9709310  14.5159310  15.8319310
  67.5809310  13.8939310  15.7739310  62.9599310   6.6399310  15.0539310
  62.4029310   6.2459310  14.3819310  62.3839310   7.2499310  15.5139310
  62.8149310   6.6679310  15.0269310  66.8739310   5.9009310  18.2479310
  66.0509310   6.2409310  17.8989310  66.7299310   5.8449310  19.1929310
  66.7509310   5.9369310  18.3239310  60.7869310   2.6269310   4.5869310
  59.9639310   2.9099310   4.9829310  61.4649310   3.0129310   5.1419310
  60.7689310   2.7119310   4.7089310  53.7989310   6.2179310  12.6799310
  53.4219310   6.0909310  13.5499310  53.2359310   5.7069310  12.0979310
  53.6789310   6.1369310  12.7169310  62.8059310   7.7279310   8.1349310
  63.3509310   8.2289310   8.7419310  62.1119310   8.3349310   7.8779310
  62.7869310   7.8689310   8.1799310  50.7889310   9.2939310   8.9559310
  51.1829310   9.2239310   8.0859310  51.4009310   8.8389310   9.5329310
  50.9179310   9.2269310   8.9179310  65.5099310   4.9739310   4.3279310
  65.4669310   5.5929310   5.0579310  65.1439310   4.1629310   4.6799310
  65.4579310   4.9499310   4.4669310  60.2599310   5.8379310   4.8069310
  59.5879310   5.1569310   4.8369310  60.3389310   6.0549310   3.8779310
  60.1839310   5.7789310   4.6919310  61.4459310  14.8169310  13.9249310
  60.8969310  14.7479310  13.1449310  61.8099310  13.9399310  14.0409310
  61.4229310  14.6959310  13.8399310  55.8799310   4.8119310  17.8759310
  55.7649310   4.5279310  16.9689310  54.9889310   4.9149310  18.2089310
  55.7509310   4.7889310  17.8019310  54.9249310   3.1389310  12.7219310
  54.3349310   2.3999310  12.5699310  55.5369310   3.1109310  11.9869310
  54.9279310   3.0409310  12.6079310  56.3099310   9.3309310  10.7539310
  56.2699310   8.3759310  10.7169310  55.8549310   9.5589310  11.5639310
  56.2469310   9.2379310  10.8529310  64.2749310   5.9839310  17.4359310
  63.5839310   5.3439310  17.6039310  64.0669310   6.3399310  16.5729310
  64.1599310   5.9469310  17.3469310  49.8929310   5.0859310   4.5729310
  50.5579310   5.6859310   4.9109310  49.0609310   5.5199310   4.7619310
  49.8719310   5.2179310   4.6409310  52.2259310   9.5309310   6.7749310
  52.9049310   9.2509310   7.3889310  52.3239310  10.4809310   6.7259310
  52.3249310   9.6169310   6.8479310  60.1529310  11.9419310  11.1639310
  60.0889310  11.4219310  11.9659310  60.6979310  12.6909310  11.4069310
  60.2139310  11.9709310  11.2979310  65.6519310  10.8379310   7.7829310
  64.7369310  10.8479310   7.4999310  65.7739310   9.9699310   8.1679310
  65.5499310  10.7279310   7.7959310  55.2739310   7.1549310   4.8669310
  56.0969310   7.6409310   4.8289310  55.3249310   6.6599310   5.6839310
  55.3859310   7.1539310   4.9659310  51.9649310  15.0299310   8.9429310
  51.4229310  15.4529310   9.6099310  52.8639310  15.2269310   9.2049310
  52.0099310  15.1099310   9.0619310  57.5689310   8.7919310   4.8689310
  57.0459310   9.4949310   5.2549310  57.5809310   8.9879310   3.9329310
  57.5039310   8.9069310   4.7989310  53.5059310   9.0949310  15.8629310
  53.4679310   9.4119310  14.9609310  52.6339310   8.7359310  16.0279310
  53.3889310   9.0889310  15.7689310  57.4139310  10.8349310  14.4379310
  56.6309310  11.2409310  14.0689310  57.1259310   9.9639310  14.7109310
  57.2769310  10.7749310  14.4259310  51.1519310  12.8469310  11.1809310
  51.8069310  13.2079310  10.5839310  50.4739310  12.4919310  10.6059310
  51.1489310  12.8479310  11.0309310  56.4399310   6.7919310  12.9169310
  56.7649310   5.9889310  13.3239310  55.5709310   6.5599310  12.5909310
  56.3699310   6.6599310  12.9269310  52.0559310   7.7259310  18.8859310
  52.8589310   8.2359310  18.7759310  51.6059310   8.1439310  19.6199310
  52.1009310   7.8449310  18.9659310  62.5519310   4.8739310   8.1459310
  63.0499310   4.6669310   7.3549310  62.7359310   5.7989310   8.3099310
  62.6389310   4.9659310   8.0659310  51.1409310   8.6569310   2.3449310
  51.9079310   8.3339310   2.8199310  50.3989310   8.4179310   2.8999310
  51.1439310   8.5849310   2.4769310  67.2399310  15.6459310  10.2139310
  67.0929310  14.7029310  10.2949310  67.8939310  15.8439310  10.8849310
  67.3049310  15.5499310  10.3099310  68.5729310  11.9239310   8.9999310
  67.7289310  12.3369310   9.1839310  68.4409310  11.0019310   9.2179310
  68.4479310  11.8589310   9.0509310  50.4789310   2.4129310  11.0409310
  51.2769310   2.0629310  10.6459310  50.4589310   2.0329310  11.9189310
  50.5779310   2.3189310  11.1029310  59.8729310   5.4699310   8.7689310
  59.4659310   6.2299310   8.3529310  60.7349310   5.4049310   8.3589310
  59.9309310   5.5589310   8.6629310  64.4099310   6.7089310   6.2509310
  65.0839310   7.1209310   6.7909310  63.5999310   7.1549310   6.4969310
  64.3929310   6.8189310   6.3509310  52.5639310   7.1999310   9.7539310
  53.5209310   7.1839310   9.7349310  52.3189310   6.3859310  10.1939310
  52.6549310   7.0939310   9.8079310  68.0319310   6.1379310  11.2369310
  67.6429310   5.6639310  11.9729310  67.4969310   6.9269310  11.1509310
  67.9139310   6.1779310  11.3199310  61.4059310   2.6859310  10.1029310
  62.0319310   3.1359310   9.5359310  61.2639310   1.8389310   9.6789310
  61.4679310   2.6349310   9.9759310  59.9409310  10.5629310  13.6019310
  60.3339310  11.3839310  13.8979310  59.0279310  10.6179310  13.8839310
  59.8749310  10.6749310  13.6759310  53.9649310   2.7239310   4.5759310
  53.8749310   2.4529310   3.6629310  53.0669310   2.8809310   4.8689310
  53.8379310   2.7099310   4.4969310  65.1649310   3.8469310  12.7509310
  64.8999310   3.1949310  13.4009310  65.3839310   3.3339310  11.9729310
  65.1589310   3.6979310  12.7349310  55.9109310   5.6399310   6.9759310
  56.0989310   4.8879310   6.4139310  56.7669310   6.0309310   7.1459310
  56.0439310   5.5939310   6.9259310  55.4119310   6.6369310   9.5279310
  55.6689310   6.2189310   8.7059310  55.4959310   5.9449310  10.1839310
  55.4559310   6.4949310   9.5069310  62.7239310  11.0919310   9.9869310
  62.8219310  11.3389310   9.0669310  61.8699310  11.4419310  10.2389310
  62.6269310  11.1679310   9.9019310  60.1139310  15.5059310   7.3259310
  59.9289310  14.6789310   6.8799310  59.8019310  16.1789310   6.7209310
  60.0499310  15.4859310   7.1909310  63.8119310  13.5179310  10.5259310
  63.2679310  14.1179310  10.0149310  63.4209310  12.6569310  10.3799310
  63.6929310  13.4849310  10.4419310  67.5869310   4.9269310  14.1489310
  66.6909310   4.6019310  14.0619310  67.4869310   5.8219310  14.4739310
  67.4589310   4.9999310  14.1799310  57.9039310  15.8859310   9.4989310
  57.8699310  15.1989310  10.1639310  58.3799310  15.4909310   8.7689310
  57.9599310  15.7479310   9.4909310  59.7829310   6.6139310   2.1869310
  60.5129310   7.2339310   2.1759310  59.0009310   7.1649310   2.1559310
  59.7759310   6.7639310   2.1809310  59.4149310   3.9949310  11.3029310
  58.9659310   3.2409310  11.6849310  60.1369310   3.6149310  10.8029310
  59.4499310   3.8499310  11.2879310  60.9499310   8.1189310  13.0149310
  60.6739310   8.9429310  13.4169310  61.9009310   8.1059310  13.1239310
  61.0369310   8.2229310  13.0799310  60.3059310  15.3419310  11.2639310
  61.0959310  15.8799310  11.2099310  59.7059310  15.7339310  10.6299310
  60.3299310  15.4609310  11.1759310  52.3359310   5.9669310  15.1519310
  51.6569310   6.6059310  15.3719310  51.9269310   5.1179310  15.3149310
  52.1959310   5.9399310  15.2009310  63.2959310  13.9719310   6.1159310
  62.9279310  14.5529310   6.7809310  64.1869310  14.2949310   5.9819310
  63.3629310  14.0879310   6.1839310  61.4009310   6.4089310  11.1009310
  61.1329310   7.0519310  11.7579310  60.6019310   6.2269310  10.6049310
  61.2639310   6.4679310  11.1209310  49.9429310   4.0469310  17.7209310
  49.3429310   4.7799310  17.8619310  50.4899310   4.0299310  18.5069310
  49.9359310   4.1389310  17.8399310  51.2989310   2.9479310   5.7639310
  51.6989310   3.5329310   6.4079310  50.8349310   3.5329310   5.1649310
  51.2909310   3.0979310   5.7699310  61.3779310   4.7429310  13.6629310
  61.2149310   5.0519310  12.7719310  60.5169310   4.4789310  13.9859310
  61.2469310   4.7489310  13.5909310  61.3099310   8.4059310  16.1989310
  60.4919310   8.2499310  15.7279310  61.3579310   9.3579310  16.2879310
  61.2119310   8.5079310  16.1499310  65.6599310   3.1019310  17.4299310
  66.3729310   2.4699310  17.5249310  66.0999310   3.9389310  17.2839310
  65.8069310   3.1279310  17.4229310  51.6889310   4.8839310  10.9519310
  50.9099310   5.3899310  11.1829310  51.4269310   3.9709310  11.0749310
  51.5559310   4.8319310  10.9969310  67.1329310  14.3789310  12.9989310
  67.4149310  14.2829310  13.9089310  66.3519310  14.9299310  13.0479310
  67.0689310  14.4369310  13.1219310  54.7849310   9.0409310   8.0579310
  54.6979310   9.8209310   8.6069310  54.8569310   8.3169310   8.6809310
  54.7829310   9.0479310   8.2079310  54.8869310   4.1819310  15.2419310
  54.7959310   4.0619310  14.2969310  54.1629310   4.7599310  15.4799310
  54.7829310   4.2409310  15.1509310  67.0539310  13.1569310   6.4339310
  67.1239310  12.5279310   7.1509310  67.1199310  12.6249310   5.6409310
  67.0709310  13.0089310   6.4239310  56.5119310   3.7439310   4.5799310
  56.8849310   3.6789310   3.7009310  55.6069310   3.4479310   4.4789310
  56.4439310   3.6969310   4.4549310  56.2109310  10.9009310   3.0139310
  55.4789310  10.4119310   2.6379310  56.8709310  10.9139310   2.3219310
  56.2009310  10.8399310   2.8779310  51.1569310  14.2459310  13.5849310
  50.8639310  13.9729310  12.7149310  50.8489310  15.1479310  13.6689310
  51.0799310  14.3259310  13.4839310  55.0719310  11.6099310  12.9829310
  54.5019310  12.2969310  13.3299310  54.6199310  10.7939310  13.1969310
  54.9409310  11.5939310  13.0549310  61.6639310  13.1909310   4.0739310
  60.9789310  13.1189310   4.7389310  62.4619310  13.3689310   4.5709310
  61.6779310  13.2039310   4.2229310  64.8269310   2.3999310   5.1739310
  64.6059310   2.1499310   6.0719310  65.6429310   1.9339310   4.9909310
  64.9029310   2.3079310   5.2659310  56.0519310  10.4839310   6.1769310
  55.4159310  10.0289310   6.7279310  55.5639310  11.2179310   5.8039310
  55.9089310  10.5199310   6.1999310  61.9299310  12.1549310  14.3819310
  61.7269310  11.8449310  15.2639310  62.4439310  11.4469310  13.9919310
  61.9699310  12.0239310  14.4449310  67.5179310   2.4239310   3.0099310
  66.6949310   1.9369310   2.9619310  67.2659310   3.2879310   3.3379310
  67.3809310   2.4719310   3.0459310  64.5749310   9.7569310  17.0289310
  63.9349310   9.2239310  17.5009310  64.5369310   9.4339310  16.1279310
  64.4879310   9.6469310  16.9739310  58.3419310  12.1249310  17.1639310
  57.9549310  11.7599310  16.3679310  57.6939310  12.7539310  17.4789310
  58.2089310  12.1579310  17.1029310  50.7019310  11.4789310  14.5329310
  50.3199310  12.3219310  14.7769310  51.5259310  11.7049310  14.1019310
  50.7579310  11.6159310  14.5089310  67.2419310   7.5939310  14.8459310
  66.3509310   7.8099310  15.1239310  67.5189310   8.3469310  14.3239310
  67.1629310   7.7179310  14.8149310  66.3099310   9.6159310   5.2779310
  66.3319310   9.7319310   6.2279310  66.4829310  10.4889310   4.9269310
  66.3349310   9.7429310   5.3549310  65.6849310  15.5559310   5.5849310
  65.4209310  15.5209310   4.6659310  66.3069310  14.8349310   5.6839310
  65.7309310  15.4589310   5.4799310  62.8589310  15.5519310   3.0959310
  62.3429310  14.8669310   3.5219310  62.3759310  16.3589310   3.2699310
  62.7309310  15.5669310   3.1729310  51.3499310   3.4629310  15.4799310
  50.7839310   3.8239310  14.7979310  50.8539310   3.5789310  16.2899310
  51.2139310   3.5239310  15.4959310  62.5959310  17.0949310  11.3969310
  63.3709310  16.9389310  10.8579310  62.5649310  18.0459310  11.5029310
  62.6909310  17.1969310  11.3419310  59.1659310  13.5069310   5.6259310
  58.9279310  12.6939310   6.0699310  58.3609310  13.7849310   5.1889310
  59.0329310  13.4389310   5.6269310  64.3589310  12.9269310  16.9329310
  64.6289310  12.0229310  17.0929310  63.4069310  12.9139310  17.0339310
  64.2719310  12.8099310  16.9669310  64.6689310   8.6329310  14.6299310
  64.0589310   7.8969310  14.6859310  64.2369310   9.2569310  14.0469310
  64.5359310   8.6179310  14.5629310  53.7669310   9.2209310  13.0549310
  53.3059310   9.5649310  12.2899310  53.8479310   8.2829310  12.8829310
  53.7179310   9.1449310  12.9349310  51.9629310   6.8619310   5.2399310
  52.9189310   6.8939310   5.2669310  51.6919310   7.7789310   5.2779310
  52.0509310   6.9829310   5.2479310  56.8029310   2.3209310  18.1829310
  56.0379310   1.9239310  18.6009310  56.5489310   3.2319310  18.0349310
  56.6719310   2.3869310  18.2179310  62.6309310   4.4129310   5.5949310
  63.2509310   4.8569310   5.0159310  61.8209310   4.9169310   5.5099310
  62.6069310   4.5349310   5.5099310  54.9229310  12.5489310   4.8269310
  54.2229310  12.9469310   4.3099310  55.3549310  11.9459310   4.2209310
  54.8889310  12.5229310   4.6829310  63.5239310  10.4919310  12.6489310
  63.3509310  10.4149310  11.7109310  64.3069310  11.0389310  12.7039310
  63.6019310  10.5519310  12.5359310  58.3419310   6.8759310   6.9679310
  58.8559310   6.2759310   6.4279310  58.0679310   7.5659310   6.3639310
  58.3719310   6.8869310   6.8219310  65.3699310  15.4429310  16.2589310
  65.7789310  15.6149310  17.1069310  65.1009310  14.5259310  16.3039310
  65.3879310  15.3479310  16.3729310  68.0369310  14.7349310   3.2569310
  68.6239310  14.5579310   2.5219310  67.4459310  15.4149310   2.9329310
  68.0359310  14.7989310   3.1209310  67.8769310  13.0899310  18.2519310
  67.1049310  13.1209310  18.8159310  68.4939310  13.6999310  18.6579310
  67.8569310  13.1719310  18.3769310  62.7779310   8.2169310  18.3209310
  61.9669310   8.2549310  17.8139310  63.1419310   7.3539310  18.1259310
  62.7209310   8.1119310  18.2309310  49.7229310   6.8499310   7.4559310
  50.3199310   7.1059310   6.7519310  50.0259310   7.3449310   8.2179310
  49.8379310   6.9459310   7.4629310  52.4039310  10.3569310  11.2609310
  52.6629310  11.0499310  10.6529310  51.5319310  10.6159310  11.5599310
  52.3259310  10.4789310  11.2209310  66.0919310   7.9469310   8.2419310
  66.9449310   7.6059310   7.9719310  66.1139310   7.9179310   9.1979310
  66.2039310   7.8989310   8.3289310  59.0219310   4.8579310  16.1469310
  58.2679310   4.5279310  15.6579310  58.8209310   4.6599310  17.0609310
  58.8999310   4.7899310  16.2009310  62.5719310   4.1809310  18.2159310
  61.7879310   4.1419310  18.7639310  63.2089310   3.6299310  18.6699310
  62.5529310   4.1059310  18.3439310  64.2379310   8.6179310   3.4569310
  64.6339310   8.9589310   4.2589310  64.7289310   9.0369310   2.7499310
  64.3509310   8.7149310   3.4689310  63.9669310   2.7039310  15.4189310
  64.6599310   2.8979310  16.0509310  63.3309310   3.4099310  15.5369310
  63.9739310   2.8189310  15.5149310  64.4319310  14.9739310  12.8939310
  63.9589310  15.8069310  12.8869310  63.9009310  14.3929310  12.3499310
  64.3029310  15.0059310  12.8239310  37.6839310  56.2459310  70.3179310
  37.9119310  56.2179310  71.2469310  37.0549310  55.5339310  70.2049310
  37.6329310  56.1509310  70.4229310  35.5999310  54.5319310  69.8239310
  35.0399310  54.9799310  70.4579310  35.4539310  53.6009310  69.9909310
  35.5099310  54.4699310  69.9259310  36.4189310  62.7729310  59.0719310
  36.2649310  63.2299310  59.8989310  37.1309310  62.1629310  59.2639310
  36.4899310  62.7529310  59.2019310  39.8139310  57.9819310  69.6769310
  39.2109310  57.3409310  70.0519310  40.6029310  57.9129310  70.2149310
  39.8379310  57.8919310  69.7939310  42.2369310  57.8079310  70.9449310
  42.4149310  56.9259310  71.2709310  42.5559310  58.3879310  71.6369310
  42.3009310  57.7689310  71.0759310  41.9249310  65.8039310  63.1909310
  41.4989310  65.1969310  62.5869310  41.2619310  66.4709310  63.3689310
  41.7859310  65.8119310  63.1369310  47.6769310  56.4359310  62.4439310
  47.7449310  55.4889310  62.3199310  48.5459310  56.7009310  62.7449310
  47.7969310  56.3489310  62.4669310  48.7959310  60.7269310  64.2849310
  48.0169310  60.8369310  64.8299310  49.1399310  61.6129310  64.1759310
  48.7399310  60.8539310  64.3409310  39.8919310  56.8549310  58.4329310
  39.6259310  56.3919310  59.2279310  39.9079310  56.1779310  57.7569310
  39.8599310  56.7089310  58.4489310  40.1269310  64.0429310  71.7169310
  39.9989310  63.1779310  72.1059310  40.5699310  63.8679310  70.8859310
  40.1669310  63.9099310  71.6599310  43.0029310  64.9949310  58.7359310
  43.7729310  65.0159310  59.3029310  43.3219310  64.6279310  57.9119310
  43.1419310  64.9509310  58.7029310  48.7389310  64.6319310  60.4659310
  48.3729310  65.2729310  61.0759310  47.9739310  64.2099310  60.0739310
  48.5939310  64.6599310  60.4939310  31.2509310  58.3729310  70.2739310
  31.5279310  58.9419310  70.9919310  30.6489310  57.7499310  70.6809310
  31.2099310  58.3659310  70.4179310  46.7209310  66.2319310  57.4829310
  46.7629310  66.0979310  56.5359310  47.6069310  66.4989310  57.7259310
  46.8399310  66.2489310  57.3929310  32.1239310  64.7099310  72.8669310
  31.2029310  64.4899310  72.7269310  32.2039310  64.8169310  73.8139310
  32.0159310  64.6949310  72.9699310  47.0639310  56.6619310  59.5709310
  47.1959310  56.5179310  60.5079310  46.1959310  57.0609310  59.5109310
  46.9699310  56.6939310  59.6839310  35.8259310  58.9789310  63.8439310
  35.4189310  58.9779310  62.9769310  35.3399310  59.6419310  64.3349310
  35.7119310  59.0639310  63.7959310  33.9449310  55.3749310  71.8619310
  34.1519310  56.2729310  72.1189310  33.5889310  54.9739310  72.6549310
  33.9259310  55.4379310  71.9959310  35.2529310  56.1659310  62.5619310
  34.4949310  56.1529310  63.1469310  35.7849310  55.4219310  62.8429310
  35.2239310  56.0689310  62.6729310  42.2929310  59.8639310  72.8609310
  42.8789310  60.1769310  73.5499310  41.5669310  60.4889310  72.8609310
  42.2749310  59.9839310  72.9489310  39.9129310  60.3649310  62.3929310
  39.0879310  60.3469310  61.9079310  39.6619310  60.1789310  63.2979310
  39.7749310  60.3389310  62.4469310  34.7379310  61.9869310  57.0629310
  34.1349310  62.7239310  56.9669310  35.3669310  62.2769310  57.7239310
  34.7409310  62.1179310  57.1349310  37.8879310  60.9399310  67.3379310
  38.7689310  61.2319310  67.5699310  37.9739310  60.6059310  66.4449310
  38.0119310  60.9349310  67.2529310  42.1849310  56.7589310  65.5219310
  41.2329310  56.6959310  65.5929310  42.5129310  56.0309310  66.0499310
  42.1049310  56.6579310  65.5989310  47.3139310  64.7669310  67.6439310
  47.7539310  65.2739310  68.3269310  46.6419310  64.2699310  68.1099310
  47.2849310  64.7679310  67.7909310  48.5289310  66.5349310  69.8719310
  47.8149310  67.1399310  69.6729310  49.2449310  67.0979310  70.1689310
  48.5299310  66.6839310  69.8849310  44.6639310  58.0839310  59.3859310
  44.7679310  58.4279310  60.2729310  44.5339310  58.8599310  58.8409310
  44.6609310  58.2269310  59.4299310  47.3059310  58.9319310  66.7129310
  48.2179310  58.9429310  67.0059310  47.3059310  58.3469310  65.9549310
  47.4229310  58.8579310  66.6539310  45.1509310  63.2689310  68.5639310
  44.2759310  63.0119310  68.2739310  45.5029310  62.4859310  68.9879310
  45.0839310  63.1359310  68.5809310  36.8929310  55.2579310  57.3729310
  37.2349310  55.2669310  58.2669310  36.4079310  56.0799310  57.2949310
  36.8749310  55.3649310  57.4769310  32.0619310  55.1739310  67.2769310
  32.8959310  55.6279310  67.1529310  31.4739310  55.5729310  66.6369310
  32.0939310  55.2829310  67.1799310  39.4959310  59.7689310  65.0269310
  39.5819310  58.9849310  65.5699310  39.9359310  60.4559310  65.5269310
  39.5629310  59.7569310  65.1599310  48.1579310  57.3869310  74.3669310
  47.2589310  57.0589310  74.3619310  48.4829310  57.2099310  73.4849310
  48.0839310  57.3219310  74.2539310  46.5919310  53.9079310  59.2409310
  46.7199310  54.8229310  58.9889310  45.6429310  53.8129310  59.3259310
  46.4869310  54.0129310  59.2199310  49.7669310  55.2459310  57.2419310
  49.5909310  56.0869310  56.8209310  48.9579310  54.7469310  57.1279310
  49.6409310  55.2899310  57.1739310  52.3359310  61.1739310  64.6199310
  52.3499310  60.8609310  65.5249310  52.2869310  62.1269310  64.6969310
  52.3319310  61.2559310  64.7459310  41.7289310  59.1099310  58.5029310
  41.1029310  58.3859310  58.5269310  41.9469310  59.2689310  59.4209310
  41.6769310  59.0379310  58.6229310  38.4669310  60.7579310  70.6229310
  37.6219310  60.4379310  70.9399310  38.9399310  59.9669310  70.3639310
  38.4189310  60.6159310  70.6309310  48.1949310  56.6249310  71.7979310
  47.3289310  56.4609310  71.4269310  48.7769310  56.0329310  71.3199310
  48.1589310  56.5279310  71.6889310  47.9009310  62.0749310  58.5039310
  47.4439310  61.8339310  59.3099310  48.8269310  61.9349310  58.7029310
  47.9609310  62.0259310  58.6329310  37.6559310  64.9839310  71.9849310
  38.5359310  64.6109310  71.9329310  37.1179310  64.4029310  71.4479310
  37.6999310  64.8619310  71.9099310  46.0259310  57.7919310  64.0919310
  46.7219310  57.4059310  63.5589310  45.4159310  57.0699310  64.2469310
  46.0369310  57.6499310  64.0429310  44.0999310  63.2409310  71.6339310
  43.5429310  62.8469310  70.9619310  43.5239310  63.8509310  72.0939310
  43.9549310  63.2689310  71.6069310  41.9269310  59.2279310  61.1669310
  41.1039310  59.5109310  61.5629310  42.6049310  59.6139310  61.7219310
  41.9089310  59.3129310  61.2889310  34.9389310  62.8189310  69.2599310
  34.5619310  62.6919310  70.1299310  34.3759310  62.3079310  68.6779310
  34.8189310  62.7379310  69.2969310  43.9459310  64.3289310  64.7149310
  44.4909310  64.8299310  65.3219310  43.2519310  64.9359310  64.4579310
  43.9269310  64.4699310  64.7599310  31.9289310  65.8949310  65.5359310
  32.3229310  65.8249310  64.6659310  32.5409310  65.4399310  66.1129310
  32.0579310  65.8279310  65.4979310  46.6499310  61.5749310  60.9079310
  46.6069310  62.1939310  61.6379310  46.2839310  60.7639310  61.2599310
  46.5979310  61.5509310  61.0469310  41.3999310  62.4389310  61.3869310
  40.7279310  61.7579310  61.4169310  41.4789310  62.6559310  60.4579310
  41.3239310  62.3799310  61.2719310  36.0649310  59.7399310  69.3019310
  35.4749310  59.0009310  69.1499310  36.6769310  59.7119310  68.5669310
  36.0679310  59.6419310  69.1879310  37.4499310  65.9319310  67.3339310
  37.4099310  64.9769310  67.2969310  36.9949310  66.1599310  68.1439310
  37.3869310  65.8389310  67.4329310  45.4149310  62.5849310  74.0159310
  44.7239310  61.9449310  74.1839310  45.2069310  62.9409310  73.1529310
  45.2999310  62.5479310  73.9269310  31.0329310  61.6869310  61.1529310
  31.6979310  62.2869310  61.4909310  30.2009310  62.1209310  61.3419310
  31.0119310  61.8189310  61.2209310  33.3659310  66.1319310  63.3549310
  34.0449310  65.8519310  63.9689310  33.4639310  67.0819310  63.3059310
  33.4649310  66.2179310  63.4279310  38.7799310  64.8679310  58.4419310
  38.3969310  64.5589310  57.6209310  39.0189310  65.7789310  58.2669310
  38.7619310  64.9449310  58.3149310  33.0359310  56.3229310  64.1199310
  32.7979310  55.5039310  63.6859310  32.2749310  56.8909310  63.9929310
  32.9079310  56.2909310  64.0479310  37.6069310  55.1379310  60.1239310
  37.8519310  54.2629310  60.4249310  37.3919310  55.6149310  60.9249310
  37.6109310  55.0869310  60.2649310  42.8389310  56.8869310  62.6619310
  42.5449310  57.6019310  62.0979310  42.5679310  57.1479310  63.5419310
  42.7669310  57.0119310  62.7019310  46.7919310  67.4389310  64.3629310
  45.8769310  67.4489310  64.0799310  46.9139310  66.5709310  64.7479310
  46.6899310  67.3289310  64.3759310  34.4449310  59.4029310  58.1579310
  33.5199310  59.1599310  58.1959310  34.4409310  60.3229310  57.8929310
  34.3269310  59.4899310  58.1289310  36.4139310  63.7559310  61.4469310
  37.2369310  64.2419310  61.4089310  36.4649310  63.2609310  62.2639310
  36.5259310  63.7549310  61.5459310  38.7089310  65.3929310  61.4489310
  38.1859310  66.0959310  61.8349310  38.7209310  65.5889310  60.5129310
  38.6439310  65.5079310  61.3789310  45.7519310  60.2599310  57.6129310
  46.2299310  59.9069310  56.8639310  46.2539310  61.0319310  57.8759310
  45.8769310  60.3139310  57.5509310  34.6459310  65.6959310  72.4429310
  34.6079310  66.0129310  71.5409310  33.7739310  65.3369310  72.6079310
  34.5289310  65.6899310  72.3489310  47.6039310  51.3399310  67.0119310
  47.7499310  51.7449310  67.8669310  46.6589310  51.4079310  66.8729310
  47.5019310  51.3999310  67.1039310  37.5799310  63.3929310  69.4969310
  37.9049310  62.5899310  69.9039310  36.7109310  63.1609310  69.1709310
  37.5099310  63.2609310  69.5069310  43.6919310  61.4749310  64.7259310
  44.1899310  61.2679310  63.9349310  43.8759310  62.3999310  64.8899310
  43.7789310  61.5669310  64.6459310  38.3169310  60.2209310  58.4669310
  37.8359310  59.4039310  58.3359310  38.7509310  60.3799310  57.6289310
  38.3109310  60.1369310  58.3429310  32.2809310  65.2579310  58.9249310
  33.0479310  64.9349310  59.3999310  31.5389310  65.0189310  59.4799310
  32.2839310  65.1859310  59.0569310  31.6189310  59.0139310  67.6209310
  32.4169310  58.6639310  67.2259310  31.5989310  58.6339310  68.4989310
  31.7179310  58.9199310  67.6829310  41.0129310  62.0709310  65.3489310
  40.6059310  62.8309310  64.9329310  41.8749310  62.0059310  64.9389310
  41.0709310  62.1599310  65.2429310  45.5499310  63.3099310  62.8309310
  46.2239310  63.7219310  63.3709310  44.7399310  63.7559310  63.0769310
  45.5329310  63.4199310  62.9309310  33.7039310  63.8009310  66.3339310
  34.6609310  63.7849310  66.3149310  33.4589310  62.9869310  66.7739310
  33.7949310  63.6949310  66.3879310  44.0069310  57.8109310  68.8729310
  43.5529310  58.2529310  68.1549310  43.4649310  57.9859310  69.6419310
  43.8799310  57.8899310  68.8789310  49.1719310  62.7389310  67.8169310
  48.7829310  62.2649310  68.5529310  48.6369310  63.5279310  67.7309310
  49.0539310  62.7789310  67.8999310  42.5459310  59.2869310  66.6829310
  43.1719310  59.7369310  66.1159310  42.4039310  58.4399310  66.2589310
  42.6079310  59.2359310  66.5559310  42.5699310  56.0319310  59.4389310
  41.8109310  56.2799310  58.9109310  43.1249310  56.8119310  59.4399310
  42.5439310  56.1639310  59.3719310  35.1049310  59.3249310  61.1559310
  35.0149310  59.0539310  60.2429310  34.2069310  59.4819310  61.4489310
  34.9779310  59.3109310  61.0769310  44.6919310  55.2159310  63.9519310
  44.0299310  55.6219310  63.3919310  45.3869310  54.9529310  63.3489310
  44.6959310  55.2349310  63.8029310  46.3049310  60.4479310  69.3309310
  46.0399310  59.7959310  69.9809310  46.5239310  59.9349310  68.5529310
  46.2989310  60.2989310  69.3149310  37.0509310  62.2409310  63.5559310
  37.2389310  61.4889310  62.9939310  37.9069310  62.6319310  63.7259310
  37.1839310  62.1949310  63.5059310  38.7069310  57.1009310  72.7959310
  39.6289310  57.1769310  73.0399310  38.2549310  57.7179310  73.3709310
  38.7669310  57.1889310  72.8999310  35.6979310  54.1109310  65.7149310
  35.8689310  55.0319310  65.9139310  36.2639310  53.6269310  66.3159310
  35.7919310  54.1669310  65.8169310  36.5519310  63.2379310  66.1079310
  36.8089310  62.8199310  65.2859310  36.6359310  62.5459310  66.7639310
  36.5959310  63.0959310  66.0869310  48.7269310  61.5279310  70.7289310
  47.8309310  61.2029310  70.6419310  48.6269310  62.4229310  71.0539310
  48.5989310  61.6009310  70.7599310  40.9229310  63.2149310  58.7669310
  41.6529310  63.8349310  58.7559310  40.1409310  63.7659310  58.7359310
  40.9159310  63.3649310  58.7609310  40.5549310  60.5959310  67.8829310
  40.1059310  59.8419310  68.2649310  41.2769310  60.2159310  67.3829310
  40.5899310  60.4509310  67.8679310  42.0899310  64.7199310  69.5949310
  41.8139310  65.5439310  69.9969310  43.0409310  64.7069310  69.7039310
  42.1769310  64.8239310  69.6599310  37.5779310  57.3329310  61.8659310
  37.4299310  58.2759310  61.7879310  36.7859310  57.0009310  62.2899310
  37.4579310  57.4109310  61.9099310  36.8339310  57.8219310  58.4609310
  35.9169310  57.6069310  58.6269310  37.3089310  57.4339310  59.1959310
  36.7769310  57.7449310  58.5759310  33.4759310  62.5679310  71.7319310
  32.7969310  63.2069310  71.9519310  33.0669310  61.7189310  71.8949310
  33.3359310  62.5409310  71.7809310  31.6239310  55.4769310  70.3139310
  32.4859310  55.4379310  70.7279310  31.8099310  55.6269310  69.3869310
  31.7579310  55.4909310  70.2479310  42.5409310  63.0099310  67.6809310
  42.2729310  63.6529310  68.3379310  41.7419310  62.8279310  67.1849310
  42.4039310  63.0689310  67.7009310  32.4389310  59.5489310  62.3439310
  32.8389310  60.1339310  62.9879310  31.9749310  60.1339310  61.7449310
  32.4309310  59.6989310  62.3499310  42.5179310  61.3439310  70.2429310
  42.3549310  61.6529310  69.3519310  41.6569310  61.0799310  70.5659310
  42.3869310  61.3499310  70.1709310  42.7399310  55.5649310  74.3809310
  42.7369310  55.2749310  73.4689310  42.0679310  56.2459310  74.4179310
  42.6529310  55.6149310  74.2689310  34.3989310  54.2279310  58.3889310
  34.3999310  54.9699310  58.9929310  34.9029310  54.5319310  57.6349310
  34.4639310  54.3619310  58.3699310  35.3149310  66.2639310  58.6729310
  35.4009310  66.2129310  57.7209310  34.7619310  67.0319310  58.8219310
  35.2549310  66.3559310  58.5699310  42.4499310  65.0069310  72.7789310
  41.6319310  64.8509310  72.3079310  42.4979310  65.9589310  72.8679310
  42.3519310  65.1089310  72.7299310  46.7999310  59.7029310  74.0099310
  47.5129310  59.0709310  74.1049310  47.2399310  60.5399310  73.8639310
  46.9469310  59.7289310  74.0029310  32.8289310  61.4849310  67.5319310
  32.0499310  61.9909310  67.7629310  32.5669310  60.5719310  67.6549310
  32.6959310  61.4329310  67.5769310  35.9249310  65.6419310  64.6379310
  35.8379310  66.4219310  65.1869310  35.9969310  64.9179310  65.2609310
  35.9229310  65.6489310  64.7879310  31.5559310  56.7259310  59.8429310
  31.4989310  56.4719310  58.9219310  31.0079310  57.5079310  59.9109310
  31.4789310  56.7939310  59.7339310  36.0269310  60.7829310  71.8219310
  35.9359310  60.6629310  70.8769310  35.3029310  61.3609310  72.0599310
  35.9229310  60.8419310  71.7309310  37.1089310  54.2989310  63.2739310
  36.7039310  53.9679310  64.0759310  37.2159310  53.5249310  62.7219310
  37.0709310  54.1579310  63.3059310  37.6519310  60.3449310  61.1599310
  38.0249310  60.2799310  60.2809310  36.7469310  60.0489310  61.0589310
  37.5839310  60.2979310  61.0349310  37.3509310  67.5019310  59.5939310
  36.6189310  67.0129310  59.2179310  38.0109310  67.5149310  58.9019310
  37.3409310  67.4409310  59.4579310  39.7969310  57.2419310  63.5449310
  38.9449310  57.1039310  63.1329310  39.8469310  58.1889310  63.6809310
  39.6949310  57.3459310  63.5099310  34.6689310  57.9099310  72.7359310
  35.4599310  57.9429310  72.1989310  34.3089310  58.7959310  72.6879310
  34.7239310  58.0269310  72.6609310  40.8419310  60.9129310  56.7839310
  40.8229310  61.5629310  57.4859310  41.1969310  60.1249310  57.1959310
  40.8849310  60.8959310  56.9259310  45.8249310  56.1629310  74.2049310
  45.8859310  55.8159310  73.3149310  44.8849310  56.2109310  74.3789310
  45.7119310  56.1249310  74.1129310  40.5149310  55.4159310  61.6359310
  40.2899310  56.2009310  62.1349310  41.4139310  55.5679310  61.3439310
  40.6019310  55.5359310  61.6629310  45.9419310  55.1359310  66.5059310
  46.8129310  54.7429310  66.5629310  45.8429310  55.3669310  65.5829310
  46.0409310  55.1149310  66.3949310  42.8499310  55.4029310  71.6399310
  42.5899310  54.6269310  71.1429310  43.8059310  55.4079310  71.5919310
  42.9389310  55.3039310  71.5699310  45.9669310  59.0009310  61.7539310
  45.7459310  58.7509310  62.6519310  46.7829310  58.5349310  61.5709310
  46.0429310  58.9089310  61.8459310  39.7699310  57.5509310  66.9209310
  38.9189310  57.1199310  66.8339310  39.8689310  57.6979310  67.8619310
  39.6729310  57.5149310  67.0299310  48.6579310  59.0249310  59.5899310
  47.8349310  58.5379310  59.5419310  48.4059310  59.8889310  59.9179310
  48.5209310  59.0729310  59.6259310  45.7149310  66.3579310  73.6089310
  45.0749310  65.8249310  74.0809310  45.6769310  66.0349310  72.7079310
  45.6279310  66.2479310  73.5539310  33.7449310  57.7059310  66.5349310
  33.6509310  57.2389310  65.7049310  34.5679310  57.3829310  66.8999310
  33.8379310  57.6049310  66.4759310  48.3819310  64.1949310  71.4259310
  47.4909310  64.4109310  71.7039310  48.6589310  64.9479310  70.9039310
  48.3029310  64.3189310  71.3949310  35.9079310  56.9639310  67.7909310
  36.3599310  56.3849310  68.4049310  36.4709310  56.9789310  67.0179310
  36.0379310  56.8919310  67.7709310  32.4899310  60.0639310  72.0599310
  31.9239310  60.4249310  71.3779310  31.9939310  60.1799310  72.8699310
  32.3539310  60.1249310  72.0759310  45.8089310  65.2339310  71.2099310
  45.1989310  64.4979310  71.2659310  45.3769310  65.8579310  70.6269310
  45.6759310  65.2189310  71.1429310  34.9069310  65.8219310  69.6349310
  34.4459310  66.1659310  68.8699310  34.9879310  64.8839310  69.4629310
  34.8579310  65.7459310  69.5149310  33.1029310  63.4629310  61.8199310
  34.0589310  63.4949310  61.8469310  32.8319310  64.3799310  61.8579310
  33.1909310  63.5839310  61.8279310  34.4619310  56.7529310  59.7909310
  34.7699310  56.8179310  60.6949310  33.5439310  56.4949310  59.8699310
  34.3839310  56.7279310  59.9169310  43.7709310  61.0139310  62.1749310
  44.3909310  61.4579310  61.5959310  42.9609310  61.5179310  62.0899310
  43.7469310  61.1359310  62.0899310  30.3909310  67.0659310  58.1359310
  31.0189310  66.5429310  58.6349310  30.8849310  67.3719310  57.3749310
  30.5349310  67.0379310  58.1029310  44.6639310  67.0929310  69.2289310
  44.4909310  67.0159310  68.2909310  45.4469310  67.6399310  69.2839310
  44.7419310  67.1529310  69.1159310  39.4819310  63.4769310  63.5479310
  39.9959310  62.8769310  63.0079310  39.2079310  64.1669310  62.9439310
  39.5119310  63.4879310  63.4019310  45.5239310  56.7059310  71.1069310
  45.2369310  57.5319310  71.4979310  45.3009310  56.7899310  70.1799310
  45.4579310  56.8229310  71.0389310  49.5389310  58.0419310  63.5929310
  50.1209310  58.5269310  63.0069310  48.9729310  58.7119310  63.9759310
  49.5409310  58.1899310  63.5669310  37.2579310  56.8609310  65.4589310
  37.0799310  57.4509310  64.7269310  37.7429310  56.1339310  65.0689310
  37.2969310  56.8439310  65.3159310  30.8629310  63.4509310  64.0359310
  31.4599310  63.7069310  63.3319310  31.1659310  63.9459310  64.7979310
  30.9779310  63.5469310  64.0429310  33.5439310  66.9579310  67.8409310
  33.8029310  67.6509310  67.2329310  32.6719310  67.2169310  68.1399310
  33.4659310  67.0799310  67.8009310  40.1619310  61.4589310  72.7269310
  39.4079310  61.1289310  72.2379310  39.9609310  61.2609310  73.6409310
  40.0399310  61.3909310  72.7809310  49.3079310  54.5739310  64.3299310
  48.7119310  54.2239310  64.9919310  50.0259310  53.9419310  64.2949310
  49.3239310  54.4489310  64.4099310  45.3779310  65.2189310  60.0369310
  45.7739310  65.5599310  60.8389310  45.8689310  65.6379310  59.3299310
  45.4909310  65.3159310  60.0489310  45.1069310  59.3049310  71.9989310
  45.7999310  59.4989310  72.6309310  44.4709310  60.0109310  72.1169310
  45.1139310  59.4199310  72.0949310  36.4189310  62.7729310  40.2119310
  36.2649310  63.2299310  41.0389310  37.1309310  62.1629310  40.4039310
  36.4899310  62.7529310  40.3419310  40.3519310  54.4189310  57.0949310
  41.2439310  54.1899310  56.8309310  39.8299310  54.2979310  56.3019310
  40.3999310  54.3749310  56.9599310  42.2369310  57.8079310  52.0849310
  42.4149310  56.9259310  52.4109310  42.5559310  58.3879310  52.7769310
  42.3009310  57.7689310  52.2159310  41.9249310  65.8039310  44.3309310
  41.4989310  65.1969310  43.7269310  41.2619310  66.4709310  44.5089310
  41.7859310  65.8119310  44.2769310  47.6769310  56.4359310  43.5839310
  47.7449310  55.4889310  43.4599310  48.5459310  56.7009310  43.8849310
  47.7969310  56.3489310  43.6069310  48.7959310  60.7269310  45.4249310
  48.0169310  60.8369310  45.9699310  49.1399310  61.6129310  45.3159310
  48.7399310  60.8539310  45.4809310  39.8919310  56.8549310  39.5729310
  39.6259310  56.3919310  40.3679310  39.9079310  56.1779310  38.8969310
  39.8599310  56.7089310  39.5889310  40.1269310  64.0429310  52.8569310
  39.9989310  63.1779310  53.2459310  40.5699310  63.8679310  52.0259310
  40.1669310  63.9099310  52.7999310  43.0029310  64.9949310  39.8759310
  43.7729310  65.0159310  40.4429310  43.3219310  64.6279310  39.0519310
  43.1419310  64.9509310  39.8429310  48.7389310  64.6319310  41.6059310
  48.3729310  65.2729310  42.2159310  47.9739310  64.2099310  41.2139310
  48.5939310  64.6599310  41.6339310  31.2509310  58.3729310  51.4139310
  31.5279310  58.9419310  52.1319310  30.6489310  57.7499310  51.8209310
  31.2099310  58.3659310  51.5579310  46.7209310  66.2319310  38.6229310
  46.7629310  66.0979310  37.6759310  47.6069310  66.4989310  38.8659310
  46.8399310  66.2489310  38.5329310  32.1239310  64.7099310  54.0069310
  31.2029310  64.4899310  53.8669310  32.2039310  64.8169310  54.9539310
  32.0159310  64.6949310  54.1099310  47.0639310  56.6619310  40.7109310
  47.1959310  56.5179310  41.6479310  46.1959310  57.0609310  40.6509310
  46.9699310  56.6939310  40.8239310  35.8259310  58.9789310  44.9839310
  35.4189310  58.9779310  44.1169310  35.3399310  59.6419310  45.4749310
  35.7119310  59.0639310  44.9359310  42.2929310  59.8639310  54.0009310
  42.8789310  60.1769310  54.6899310  41.5669310  60.4889310  54.0009310
  42.2749310  59.9839310  54.0889310  39.9129310  60.3649310  43.5329310
  39.0879310  60.3469310  43.0479310  39.6619310  60.1789310  44.4379310
  39.7749310  60.3389310  43.5869310  31.8139310  58.3769310  57.0549310
  31.6159310  58.4579310  56.1229310  31.0199310  58.6799310  57.4959310
  31.6869310  58.4259310  56.9919310  34.7379310  61.9869310  38.2029310
  34.1349310  62.7239310  38.1069310  35.3669310  62.2769310  38.8639310
  34.7409310  62.1179310  38.2749310  37.8879310  60.9399310  48.4779310
  38.7689310  61.2319310  48.7099310  37.9739310  60.6059310  47.5849310
  38.0119310  60.9349310  48.3929310  42.1849310  56.7589310  46.6619310
  41.2329310  56.6959310  46.7329310  42.5129310  56.0309310  47.1899310
  42.1049310  56.6579310  46.7389310  47.3139310  64.7669310  48.7839310
  47.7539310  65.2739310  49.4669310  46.6419310  64.2699310  49.2499310
  47.2849310  64.7679310  48.9309310  48.5289310  66.5349310  51.0119310
  47.8149310  67.1399310  50.8129310  49.2449310  67.0979310  51.3089310
  48.5299310  66.6839310  51.0249310  37.8339310  64.2879310  55.8479310
  37.6769310  63.3439310  55.8119310  37.7449310  64.5799310  54.9409310
  37.8019310  64.2039310  55.7269310  44.6639310  58.0839310  40.5259310
  44.7679310  58.4279310  41.4129310  44.5339310  58.8599310  39.9809310
  44.6609310  58.2269310  40.5699310  47.3059310  58.9319310  47.8529310
  48.2179310  58.9429310  48.1459310  47.3059310  58.3469310  47.0949310
  47.4229310  58.8579310  47.7939310  45.1509310  63.2689310  49.7039310
  44.2759310  63.0119310  49.4139310  45.5029310  62.4859310  50.1279310
  45.0839310  63.1359310  49.7209310  36.8929310  55.2579310  38.5129310
  37.2349310  55.2669310  39.4069310  36.4079310  56.0799310  38.4349310
  36.8749310  55.3649310  38.6169310  33.1609310  54.3069310  55.4289310
  32.3279310  53.8799310  55.6299310  33.1279310  55.1339310  55.9089310
  33.0499310  54.3579310  55.5159310  39.4959310  59.7689310  46.1669310
  39.5819310  58.9849310  46.7099310  39.9359310  60.4559310  46.6669310
  39.5629310  59.7569310  46.2999310  48.1579310  57.3869310  55.5069310
  47.2589310  57.0589310  55.5019310  48.4829310  57.2099310  54.6249310
  48.0839310  57.3219310  55.3939310  46.5919310  53.9079310  40.3809310
  46.7199310  54.8229310  40.1289310  45.6429310  53.8129310  40.4659310
  46.4869310  54.0129310  40.3599310  49.7669310  55.2459310  38.3819310
  49.5909310  56.0869310  37.9609310  48.9579310  54.7469310  38.2679310
  49.6409310  55.2899310  38.3139310  52.3359310  61.1739310  45.7599310
  52.3499310  60.8609310  46.6649310  52.2869310  62.1269310  45.8369310
  52.3319310  61.2559310  45.8859310  41.7289310  59.1099310  39.6429310
  41.1029310  58.3859310  39.6669310  41.9469310  59.2689310  40.5609310
  41.6769310  59.0379310  39.7629310  38.4669310  60.7579310  51.7629310
  37.6219310  60.4379310  52.0799310  38.9399310  59.9669310  51.5039310
  38.4189310  60.6159310  51.7709310  35.3939310  65.9439310  56.0969310
  36.2049310  65.4559310  55.9549310  35.1249310  66.2209310  55.2209310
  35.4629310  65.9169310  55.9659310  48.1949310  56.6249310  52.9379310
  47.3289310  56.4609310  52.5669310  48.7769310  56.0329310  52.4599310
  48.1589310  56.5279310  52.8289310  47.9009310  62.0749310  39.6439310
  47.4439310  61.8339310  40.4499310  48.8269310  61.9349310  39.8429310
  47.9609310  62.0259310  39.7729310  37.6559310  64.9839310  53.1249310
  38.5359310  64.6109310  53.0729310  37.1179310  64.4029310  52.5879310
  37.6999310  64.8619310  53.0499310  46.0259310  57.7919310  45.2319310
  46.7219310  57.4059310  44.6989310  45.4159310  57.0699310  45.3869310
  46.0369310  57.6499310  45.1829310  44.0999310  63.2409310  52.7739310
  43.5429310  62.8469310  52.1019310  43.5239310  63.8509310  53.2339310
  43.9549310  63.2689310  52.7469310  48.0139310  62.5019310  55.9679310
  47.1909310  62.8419310  55.6189310  47.8699310  62.4459310  56.9129310
  47.8909310  62.5379310  56.0439310  41.9269310  59.2279310  42.3069310
  41.1039310  59.5109310  42.7029310  42.6049310  59.6139310  42.8619310
  41.9089310  59.3129310  42.4289310  34.9389310  62.8189310  50.3999310
  34.5619310  62.6919310  51.2699310  34.3759310  62.3079310  49.8179310
  34.8189310  62.7379310  50.4369310  43.9459310  64.3289310  45.8549310
  44.4909310  64.8299310  46.4619310  43.2519310  64.9359310  45.5979310
  43.9269310  64.4699310  45.8999310  31.9289310  65.8949310  46.6759310
  32.3229310  65.8249310  45.8059310  32.5409310  65.4399310  47.2529310
  32.0579310  65.8279310  46.6379310  46.6499310  61.5749310  42.0479310
  46.6069310  62.1939310  42.7779310  46.2839310  60.7639310  42.3999310
  46.5979310  61.5509310  42.1869310  41.3999310  62.4389310  42.5269310
  40.7279310  61.7579310  42.5569310  41.4789310  62.6559310  41.5979310
  41.3239310  62.3799310  42.4119310  37.0199310  61.4129310  55.5959310
  36.9049310  61.1289310  54.6889310  36.1289310  61.5159310  55.9289310
  36.8909310  61.3899310  55.5219310  36.0649310  59.7399310  50.4419310
  35.4749310  59.0009310  50.2899310  36.6769310  59.7119310  49.7069310
  36.0679310  59.6419310  50.3279310  37.4499310  65.9319310  48.4739310
  37.4099310  64.9769310  48.4369310  36.9949310  66.1599310  49.2839310
  37.3869310  65.8389310  48.5729310  45.4149310  62.5849310  55.1559310
  44.7239310  61.9449310  55.3239310  45.2069310  62.9409310  54.2929310
  45.2999310  62.5479310  55.0669310  31.0329310  61.6869310  42.2929310
  31.6979310  62.2869310  42.6309310  30.2009310  62.1209310  42.4819310
  31.0119310  61.8189310  42.3609310  33.3659310  66.1319310  44.4949310
  34.0449310  65.8519310  45.1089310  33.4639310  67.0819310  44.4459310
  33.4649310  66.2179310  44.5679310  38.7799310  64.8679310  39.5819310
  38.3969310  64.5589310  38.7609310  39.0189310  65.7789310  39.4069310
  38.7619310  64.9449310  39.4549310  42.8389310  56.8869310  43.8019310
  42.5449310  57.6019310  43.2379310  42.5679310  57.1479310  44.6819310
  42.7669310  57.0119310  43.8419310  46.7919310  67.4389310  45.5029310
  45.8769310  67.4489310  45.2199310  46.9139310  66.5709310  45.8879310
  46.6899310  67.3289310  45.5159310  34.4449310  59.4029310  39.2979310
  33.5199310  59.1599310  39.3359310  34.4409310  60.3229310  39.0329310
  34.3269310  59.4899310  39.2689310  36.4139310  63.7559310  42.5869310
  37.2369310  64.2419310  42.5489310  36.4649310  63.2609310  43.4039310
  36.5259310  63.7549310  42.6859310  38.7089310  65.3929310  42.5889310
  38.1859310  66.0959310  42.9749310  38.7209310  65.5889310  41.6529310
  38.6439310  65.5079310  42.5189310  45.7519310  60.2599310  38.7529310
  46.2299310  59.9069310  38.0039310  46.2539310  61.0319310  39.0159310
  45.8769310  60.3139310  38.6909310  34.6459310  65.6959310  53.5829310
  34.6079310  66.0129310  52.6809310  33.7739310  65.3369310  53.7479310
  34.5289310  65.6899310  53.4889310  47.6039310  51.3399310  48.1519310
  47.7499310  51.7449310  49.0069310  46.6589310  51.4079310  48.0129310
  47.5019310  51.3999310  48.2439310  37.5799310  63.3929310  50.6369310
  37.9049310  62.5899310  51.0439310  36.7109310  63.1609310  50.3109310
  37.5099310  63.2609310  50.6469310  33.1959310  64.3269310  56.6059310
  33.9989310  64.8369310  56.4959310  32.7459310  64.7449310  57.3399310
  33.2409310  64.4459310  56.6859310  43.6919310  61.4749310  45.8659310
  44.1899310  61.2679310  45.0749310  43.8759310  62.3999310  46.0299310
  43.7789310  61.5669310  45.7859310  38.3169310  60.2209310  39.6069310
  37.8359310  59.4039310  39.4759310  38.7509310  60.3799310  38.7689310
  38.3109310  60.1369310  39.4829310  32.2809310  65.2579310  40.0649310
  33.0479310  64.9349310  40.5399310  31.5389310  65.0189310  40.6199310
  32.2839310  65.1859310  40.1969310  31.6189310  59.0139310  48.7609310
  32.4169310  58.6639310  48.3659310  31.5989310  58.6339310  49.6389310
  31.7179310  58.9199310  48.8229310  41.0129310  62.0709310  46.4889310
  40.6059310  62.8309310  46.0729310  41.8749310  62.0059310  46.0789310
  41.0709310  62.1599310  46.3829310  45.5499310  63.3099310  43.9709310
  46.2239310  63.7219310  44.5109310  44.7399310  63.7559310  44.2169310
  45.5329310  63.4199310  44.0709310  33.7039310  63.8009310  47.4739310
  34.6609310  63.7849310  47.4549310  33.4589310  62.9869310  47.9139310
  33.7949310  63.6949310  47.5279310  44.0069310  57.8109310  50.0129310
  43.5529310  58.2529310  49.2949310  43.4649310  57.9859310  50.7819310
  43.8799310  57.8899310  50.0189310  49.1719310  62.7389310  48.9569310
  48.7829310  62.2649310  49.6929310  48.6369310  63.5279310  48.8709310
  49.0539310  62.7789310  49.0399310  42.5459310  59.2869310  47.8229310
  43.1719310  59.7369310  47.2559310  42.4039310  58.4399310  47.3989310
  42.6079310  59.2359310  47.6959310  42.5699310  56.0319310  40.5789310
  41.8109310  56.2799310  40.0509310  43.1249310  56.8119310  40.5799310
  42.5439310  56.1639310  40.5119310  35.1049310  59.3249310  42.2959310
  35.0149310  59.0539310  41.3829310  34.2069310  59.4819310  42.5889310
  34.9779310  59.3109310  42.2169310  44.6919310  55.2159310  45.0919310
  44.0299310  55.6219310  44.5319310  45.3869310  54.9529310  44.4889310
  44.6959310  55.2349310  44.9429310  46.3049310  60.4479310  50.4709310
  46.0399310  59.7959310  51.1209310  46.5239310  59.9349310  49.6929310
  46.2989310  60.2989310  50.4549310  37.0509310  62.2409310  44.6959310
  37.2389310  61.4889310  44.1339310  37.9069310  62.6319310  44.8659310
  37.1839310  62.1949310  44.6459310  39.5009310  67.4479310  38.9789310
  40.3449310  67.4099310  39.4299310  39.7239310  67.6529310  38.0709310
  39.6379310  67.4689310  38.9209310  36.5519310  63.2379310  47.2479310
  36.8089310  62.8199310  46.4259310  36.6359310  62.5459310  47.9039310
  36.5959310  63.0959310  47.2269310  47.3579310  53.9769310  56.6709310
  46.8169310  53.4619310  57.2689310  46.8939310  54.8099310  56.5839310
  47.2299310  54.0179310  56.7369310  48.7269310  61.5279310  51.8689310
  47.8309310  61.2029310  51.7819310  48.6269310  62.4229310  52.1939310
  48.5989310  61.6009310  51.8999310  40.9229310  63.2149310  39.9069310
  41.6529310  63.8349310  39.8959310  40.1409310  63.7659310  39.8759310
  40.9159310  63.3649310  39.9009310  40.5549310  60.5959310  49.0229310
  40.1059310  59.8419310  49.4049310  41.2769310  60.2159310  48.5229310
  40.5899310  60.4509310  49.0079310  42.0899310  64.7199310  50.7349310
  41.8139310  65.5439310  51.1369310  43.0409310  64.7069310  50.8439310
  42.1769310  64.8239310  50.7999310  37.5779310  57.3329310  43.0059310
  37.4299310  58.2759310  42.9279310  36.7859310  57.0009310  43.4299310
  37.4579310  57.4109310  43.0499310  41.2289310  57.6769310  55.4249310
  40.7629310  58.2749310  56.0089310  41.8239310  58.2409310  54.9299310
  41.2449310  57.8249310  55.4359310  36.8339310  57.8219310  39.6009310
  35.9169310  57.6069310  39.7669310  37.3089310  57.4339310  40.3359310
  36.7769310  57.7449310  39.7159310  33.4759310  62.5679310  52.8719310
  32.7969310  63.2069310  53.0919310  33.0669310  61.7189310  53.0349310
  33.3359310  62.5409310  52.9209310  42.5409310  63.0099310  48.8209310
  42.2729310  63.6529310  49.4779310  41.7419310  62.8279310  48.3249310
  42.4039310  63.0689310  48.8409310  31.0829310  60.6479310  55.4409310
  30.4829310  61.3809310  55.5819310  31.6299310  60.6309310  56.2269310
  31.0759310  60.7399310  55.5599310  32.4389310  59.5489310  43.4839310
  32.8389310  60.1339310  44.1279310  31.9749310  60.1339310  42.8849310
  32.4309310  59.6989310  43.4899310  42.5179310  61.3439310  51.3829310
  42.3549310  61.6529310  50.4919310  41.6569310  61.0799310  51.7059310
  42.3869310  61.3499310  51.3109310  42.7399310  55.5649310  55.5209310
  42.7369310  55.2749310  54.6089310  42.0679310  56.2459310  55.5579310
  42.6529310  55.6149310  55.4089310  34.3989310  54.2279310  39.5289310
  34.3999310  54.9699310  40.1329310  34.9029310  54.5319310  38.7749310
  34.4639310  54.3619310  39.5099310  35.3149310  66.2639310  39.8129310
  35.4009310  66.2129310  38.8609310  34.7619310  67.0319310  39.9619310
  35.2549310  66.3559310  39.7099310  42.4499310  65.0069310  53.9189310
  41.6319310  64.8509310  53.4479310  42.4979310  65.9589310  54.0079310
  42.3519310  65.1089310  53.8699310  46.7999310  59.7029310  55.1499310
  47.5129310  59.0709310  55.2449310  47.2399310  60.5399310  55.0039310
  46.9469310  59.7289310  55.1429310  32.8289310  61.4849310  48.6719310
  32.0499310  61.9909310  48.9029310  32.5669310  60.5719310  48.7949310
  32.6959310  61.4329310  48.7169310  35.9249310  65.6419310  45.7779310
  35.8379310  66.4219310  46.3269310  35.9969310  64.9179310  46.4009310
  35.9229310  65.6489310  45.9279310  31.5559310  56.7259310  40.9829310
  31.4989310  56.4719310  40.0619310  31.0079310  57.5079310  41.0509310
  31.4789310  56.7939310  40.8739310  36.0269310  60.7829310  52.9619310
  35.9359310  60.6629310  52.0169310  35.3029310  61.3609310  53.1999310
  35.9229310  60.8419310  52.8709310  37.6519310  60.3449310  42.2999310
  38.0249310  60.2799310  41.4209310  36.7469310  60.0489310  42.1989310
  37.5839310  60.2979310  42.1749310  37.3509310  67.5019310  40.7339310
  36.6189310  67.0129310  40.3579310  38.0109310  67.5149310  40.0419310
  37.3409310  67.4409310  40.5979310  39.7969310  57.2419310  44.6849310
  38.9449310  57.1039310  44.2729310  39.8469310  58.1889310  44.8209310
  39.6949310  57.3459310  44.6499310  34.6689310  57.9099310  53.8759310
  35.4599310  57.9429310  53.3389310  34.3089310  58.7959310  53.8279310
  34.7239310  58.0269310  53.8009310  40.8419310  60.9129310  37.9239310
  40.8229310  61.5629310  38.6259310  41.1969310  60.1249310  38.3359310
  40.8849310  60.8959310  38.0659310  45.8249310  56.1629310  55.3449310
  45.8859310  55.8159310  54.4549310  44.8849310  56.2109310  55.5189310
  45.7119310  56.1249310  55.2529310  40.5149310  55.4159310  42.7759310
  40.2899310  56.2009310  43.2749310  41.4139310  55.5679310  42.4839310
  40.6019310  55.5359310  42.8029310  45.9419310  55.1359310  47.6459310
  46.8129310  54.7429310  47.7029310  45.8429310  55.3669310  46.7229310
  46.0409310  55.1149310  47.5349310  42.8499310  55.4029310  52.7799310
  42.5899310  54.6269310  52.2829310  43.8059310  55.4079310  52.7319310
  42.9389310  55.3039310  52.7099310  45.9669310  59.0009310  42.8939310
  45.7459310  58.7509310  43.7919310  46.7829310  58.5349310  42.7109310
  46.0429310  58.9089310  42.9859310  38.4009310  54.5719310  55.2119310
  37.8479310  54.8829310  55.9279310  38.4619310  55.3179310  54.6149310
  38.3379310  54.7069310  55.2269310  48.6579310  59.0249310  40.7299310
  47.8349310  58.5379310  40.6819310  48.4059310  59.8889310  41.0579310
  48.5209310  59.0729310  40.7659310  45.7149310  66.3579310  54.7489310
  45.0749310  65.8249310  55.2209310  45.6769310  66.0349310  53.8479310
  45.6279310  66.2479310  54.6939310  48.3819310  64.1949310  52.5659310
  47.4909310  64.4109310  52.8439310  48.6589310  64.9479310  52.0439310
  48.3029310  64.3189310  52.5349310  47.4499310  66.2169310  42.9979310
  47.4719310  66.3329310  43.9479310  47.6229310  67.0899310  42.6469310
  47.4749310  66.3439310  43.0749310  32.4899310  60.0639310  53.1999310
  31.9239310  60.4249310  52.5179310  31.9939310  60.1799310  54.0099310
  32.3539310  60.1249310  53.2159310  45.8089310  65.2339310  52.3499310
  45.1989310  64.4979310  52.4059310  45.3769310  65.8579310  51.7669310
  45.6759310  65.2189310  52.2829310  34.9069310  65.8219310  50.7749310
  34.4459310  66.1659310  50.0099310  34.9879310  64.8839310  50.6029310
  34.8579310  65.7459310  50.6549310  33.1029310  63.4629310  42.9599310
  34.0589310  63.4949310  42.9869310  32.8319310  64.3799310  42.9979310
  33.1909310  63.5839310  42.9679310  37.9429310  58.9219310  55.9029310
  37.1779310  58.5249310  56.3209310  37.6889310  59.8329310  55.7549310
  37.8119310  58.9879310  55.9379310  34.4619310  56.7529310  40.9309310
  34.7699310  56.8179310  41.8349310  33.5439310  56.4949310  41.0099310
  34.3839310  56.7279310  41.0569310  43.7709310  61.0139310  43.3149310
  44.3909310  61.4579310  42.7359310  42.9609310  61.5179310  43.2299310
  43.7469310  61.1359310  43.2299310  30.3909310  67.0659310  39.2759310
  31.0189310  66.5429310  39.7749310  30.8849310  67.3719310  38.5149310
  30.5349310  67.0379310  39.2429310  44.6639310  67.0929310  50.3689310
  44.4909310  67.0159310  49.4309310  45.4469310  67.6399310  50.4239310
  44.7419310  67.1529310  50.2559310  39.4819310  63.4769310  44.6879310
  39.9959310  62.8769310  44.1479310  39.2079310  64.1669310  44.0839310
  39.5119310  63.4879310  44.5419310  45.5239310  56.7059310  52.2469310
  45.2369310  57.5319310  52.6379310  45.3009310  56.7899310  51.3199310
  45.4579310  56.8229310  52.1789310  49.5389310  58.0419310  44.7329310
  50.1209310  58.5269310  44.1469310  48.9729310  58.7119310  45.1159310
  49.5409310  58.1899310  44.7069310  43.9179310  64.8179310  56.0409310
  43.1069310  64.8559310  55.5339310  44.2819310  63.9549310  55.8459310
  43.8609310  64.7129310  55.9509310  30.8629310  63.4509310  45.1759310
  31.4599310  63.7069310  44.4719310  31.1659310  63.9459310  45.9379310
  30.9779310  63.5469310  45.1829310  33.5439310  66.9579310  48.9809310
  33.8029310  67.6509310  48.3729310  32.6719310  67.2169310  49.2799310
  33.4659310  67.0799310  48.9409310  47.2319310  64.5479310  45.9619310
  48.0849310  64.2069310  45.6919310  47.2539310  64.5189310  46.9179310
  47.3439310  64.4999310  46.0489310  40.1619310  61.4589310  53.8669310
  39.4079310  61.1289310  53.3779310  39.9609310  61.2609310  54.7809310
  40.0399310  61.3909310  53.9209310  43.7119310  60.7819310  55.9359310
  42.9279310  60.7429310  56.4839310  44.3489310  60.2309310  56.3899310
  43.6929310  60.7069310  56.0639310  49.3079310  54.5739310  45.4699310
  48.7119310  54.2239310  46.1319310  50.0259310  53.9419310  45.4349310
  49.3239310  54.4489310  45.5499310  45.3779310  65.2189310  41.1769310
  45.7739310  65.5599310  41.9789310  45.8689310  65.6379310  40.4699310
  45.4909310  65.3159310  41.1889310  45.1069310  59.3049310  53.1389310
  45.7999310  59.4989310  53.7709310  44.4709310  60.0109310  53.2569310
  45.1139310  59.4199310  53.2349310  37.6839310  56.2459310  32.5979310
  37.9119310  56.2179310  33.5269310  37.0549310  55.5339310  32.4849310
  37.6329310  56.1509310  32.7029310  35.5999310  54.5319310  32.1039310
  35.0399310  54.9799310  32.7379310  35.4539310  53.6009310  32.2709310
  35.5099310  54.4699310  32.2059310  36.4189310  62.7729310  21.3519310
  36.2649310  63.2299310  22.1789310  37.1309310  62.1629310  21.5439310
  36.4899310  62.7529310  21.4819310  39.8139310  57.9819310  31.9569310
  39.2109310  57.3409310  32.3319310  40.6029310  57.9129310  32.4949310
  39.8379310  57.8919310  32.0739310  40.3519310  54.4189310  38.2349310
  41.2439310  54.1899310  37.9709310  39.8299310  54.2979310  37.4419310
  40.3999310  54.3749310  38.0999310  42.2369310  57.8079310  33.2249310
  42.4149310  56.9259310  33.5509310  42.5559310  58.3879310  33.9169310
  42.3009310  57.7689310  33.3559310  41.9249310  65.8039310  25.4709310
  41.4989310  65.1969310  24.8669310  41.2619310  66.4709310  25.6489310
  41.7859310  65.8119310  25.4169310  47.6769310  56.4359310  24.7239310
  47.7449310  55.4889310  24.5999310  48.5459310  56.7009310  25.0249310
  47.7969310  56.3489310  24.7469310  48.7959310  60.7269310  26.5649310
  48.0169310  60.8369310  27.1099310  49.1399310  61.6129310  26.4559310
  48.7399310  60.8539310  26.6209310  39.8919310  56.8549310  20.7129310
  39.6259310  56.3919310  21.5079310  39.9079310  56.1779310  20.0369310
  39.8599310  56.7089310  20.7289310  40.1269310  64.0429310  33.9969310
  39.9989310  63.1779310  34.3859310  40.5699310  63.8679310  33.1659310
  40.1669310  63.9099310  33.9399310  43.0029310  64.9949310  21.0159310
  43.7729310  65.0159310  21.5829310  43.3219310  64.6279310  20.1919310
  43.1419310  64.9509310  20.9829310  48.7389310  64.6319310  22.7459310
  48.3729310  65.2729310  23.3559310  47.9739310  64.2099310  22.3539310
  48.5939310  64.6599310  22.7739310  31.2509310  58.3729310  32.5539310
  31.5279310  58.9419310  33.2719310  30.6489310  57.7499310  32.9609310
  31.2099310  58.3659310  32.6979310  46.7209310  66.2319310  19.7629310
  46.7629310  66.0979310  18.8159310  47.6069310  66.4989310  20.0059310
  46.8399310  66.2489310  19.6729310  32.1239310  64.7099310  35.1469310
  31.2029310  64.4899310  35.0069310  32.2039310  64.8169310  36.0939310
  32.0159310  64.6949310  35.2499310  47.0639310  56.6619310  21.8509310
  47.1959310  56.5179310  22.7879310  46.1959310  57.0609310  21.7909310
  46.9699310  56.6939310  21.9639310  35.8259310  58.9789310  26.1239310
  35.4189310  58.9779310  25.2569310  35.3399310  59.6419310  26.6149310
  35.7119310  59.0639310  26.0759310  33.9449310  55.3749310  34.1419310
  34.1519310  56.2729310  34.3989310  33.5889310  54.9739310  34.9349310
  33.9259310  55.4379310  34.2759310  35.2529310  56.1659310  24.8419310
  34.4949310  56.1529310  25.4269310  35.7849310  55.4219310  25.1229310
  35.2239310  56.0689310  24.9529310  42.2929310  59.8639310  35.1409310
  42.8789310  60.1769310  35.8299310  41.5669310  60.4889310  35.1409310
  42.2749310  59.9839310  35.2289310  39.9129310  60.3649310  24.6729310
  39.0879310  60.3469310  24.1879310  39.6619310  60.1789310  25.5779310
  39.7749310  60.3389310  24.7269310  31.8139310  58.3769310  38.1949310
  31.6159310  58.4579310  37.2629310  31.0199310  58.6799310  38.6359310
  31.6869310  58.4259310  38.1319310  34.7379310  61.9869310  19.3429310
  34.1349310  62.7239310  19.2469310  35.3669310  62.2769310  20.0039310
  34.7409310  62.1179310  19.4149310  37.8879310  60.9399310  29.6179310
  38.7689310  61.2319310  29.8499310  37.9739310  60.6059310  28.7249310
  38.0119310  60.9349310  29.5329310  42.1849310  56.7589310  27.8019310
  41.2329310  56.6959310  27.8729310  42.5129310  56.0309310  28.3299310
  42.1049310  56.6579310  27.8789310  47.3139310  64.7669310  29.9239310
  47.7539310  65.2739310  30.6069310  46.6419310  64.2699310  30.3899310
  47.2849310  64.7679310  30.0709310  48.5289310  66.5349310  32.1519310
  47.8149310  67.1399310  31.9529310  49.2449310  67.0979310  32.4489310
  48.5299310  66.6839310  32.1649310  37.8339310  64.2879310  36.9879310
  37.6769310  63.3439310  36.9519310  37.7449310  64.5799310  36.0809310
  37.8019310  64.2039310  36.8669310  44.6639310  58.0839310  21.6659310
  44.7679310  58.4279310  22.5529310  44.5339310  58.8599310  21.1209310
  44.6609310  58.2269310  21.7099310  47.3059310  58.9319310  28.9929310
  48.2179310  58.9429310  29.2859310  47.3059310  58.3469310  28.2349310
  47.4229310  58.8579310  28.9339310  45.1509310  63.2689310  30.8439310
  44.2759310  63.0119310  30.5539310  45.5029310  62.4859310  31.2679310
  45.0839310  63.1359310  30.8609310  36.8929310  55.2579310  19.6529310
  37.2349310  55.2669310  20.5469310  36.4079310  56.0799310  19.5749310
  36.8749310  55.3649310  19.7569310  32.0619310  55.1739310  29.5569310
  32.8959310  55.6279310  29.4329310  31.4739310  55.5729310  28.9169310
  32.0939310  55.2829310  29.4599310  33.1609310  54.3069310  36.5689310
  32.3279310  53.8799310  36.7699310  33.1279310  55.1339310  37.0489310
  33.0499310  54.3579310  36.6559310  39.4959310  59.7689310  27.3069310
  39.5819310  58.9849310  27.8499310  39.9359310  60.4559310  27.8069310
  39.5629310  59.7569310  27.4399310  48.1579310  57.3869310  36.6469310
  47.2589310  57.0589310  36.6419310  48.4829310  57.2099310  35.7649310
  48.0839310  57.3219310  36.5339310  46.5919310  53.9079310  21.5209310
  46.7199310  54.8229310  21.2689310  45.6429310  53.8129310  21.6059310
  46.4869310  54.0129310  21.4999310  49.7669310  55.2459310  19.5219310
  49.5909310  56.0869310  19.1009310  48.9579310  54.7469310  19.4079310
  49.6409310  55.2899310  19.4539310  52.3359310  61.1739310  26.8999310
  52.3499310  60.8609310  27.8049310  52.2869310  62.1269310  26.9769310
  52.3319310  61.2559310  27.0259310  41.7289310  59.1099310  20.7829310
  41.1029310  58.3859310  20.8069310  41.9469310  59.2689310  21.7009310
  41.6769310  59.0379310  20.9029310  38.4669310  60.7579310  32.9029310
  37.6219310  60.4379310  33.2199310  38.9399310  59.9669310  32.6439310
  38.4189310  60.6159310  32.9109310  35.3939310  65.9439310  37.2369310
  36.2049310  65.4559310  37.0949310  35.1249310  66.2209310  36.3609310
  35.4629310  65.9169310  37.1059310  48.1949310  56.6249310  34.0779310
  47.3289310  56.4609310  33.7069310  48.7769310  56.0329310  33.5999310
  48.1589310  56.5279310  33.9689310  47.9009310  62.0749310  20.7839310
  47.4439310  61.8339310  21.5899310  48.8269310  61.9349310  20.9829310
  47.9609310  62.0259310  20.9129310  37.6559310  64.9839310  34.2649310
  38.5359310  64.6109310  34.2129310  37.1179310  64.4029310  33.7279310
  37.6999310  64.8619310  34.1899310  46.0259310  57.7919310  26.3719310
  46.7219310  57.4059310  25.8389310  45.4159310  57.0699310  26.5269310
  46.0369310  57.6499310  26.3229310  44.0999310  63.2409310  33.9139310
  43.5429310  62.8469310  33.2419310  43.5239310  63.8509310  34.3739310
  43.9549310  63.2689310  33.8869310  48.0139310  62.5019310  37.1079310
  47.1909310  62.8419310  36.7589310  47.8699310  62.4459310  38.0529310
  47.8909310  62.5379310  37.1839310  41.9269310  59.2279310  23.4469310
  41.1039310  59.5109310  23.8429310  42.6049310  59.6139310  24.0019310
  41.9089310  59.3129310  23.5689310  34.9389310  62.8189310  31.5399310
  34.5619310  62.6919310  32.4099310  34.3759310  62.3079310  30.9579310
  34.8189310  62.7379310  31.5769310  43.9459310  64.3289310  26.9949310
  44.4909310  64.8299310  27.6019310  43.2519310  64.9359310  26.7379310
  43.9269310  64.4699310  27.0399310  31.9289310  65.8949310  27.8159310
  32.3229310  65.8249310  26.9459310  32.5409310  65.4399310  28.3929310
  32.0579310  65.8279310  27.7779310  46.6499310  61.5749310  23.1879310
  46.6069310  62.1939310  23.9179310  46.2839310  60.7639310  23.5399310
  46.5979310  61.5509310  23.3269310  41.3999310  62.4389310  23.6669310
  40.7279310  61.7579310  23.6969310  41.4789310  62.6559310  22.7379310
  41.3239310  62.3799310  23.5519310  35.0869310  57.2919310  37.6299310
  34.9339310  57.5719310  36.7279310  34.8499310  58.0519310  38.1609310
  35.0369310  57.4249310  37.5829310  37.0199310  61.4129310  36.7359310
  36.9049310  61.1289310  35.8289310  36.1289310  61.5159310  37.0689310
  36.8909310  61.3899310  36.6619310  36.0649310  59.7399310  31.5819310
  35.4749310  59.0009310  31.4299310  36.6769310  59.7119310  30.8469310
  36.0679310  59.6419310  31.4679310  37.4499310  65.9319310  29.6139310
  37.4099310  64.9769310  29.5769310  36.9949310  66.1599310  30.4239310
  37.3869310  65.8389310  29.7129310  45.4149310  62.5849310  36.2959310
  44.7239310  61.9449310  36.4639310  45.2069310  62.9409310  35.4329310
  45.2999310  62.5479310  36.2069310  31.0329310  61.6869310  23.4329310
  31.6979310  62.2869310  23.7709310  30.2009310  62.1209310  23.6219310
  31.0119310  61.8189310  23.5009310  33.3659310  66.1319310  25.6349310
  34.0449310  65.8519310  26.2489310  33.4639310  67.0819310  25.5859310
  33.4649310  66.2179310  25.7079310  38.7799310  64.8679310  20.7219310
  38.3969310  64.5589310  19.9009310  39.0189310  65.7789310  20.5469310
  38.7619310  64.9449310  20.5949310  33.0359310  56.3229310  26.3999310
  32.7979310  55.5039310  25.9659310  32.2749310  56.8909310  26.2729310
  32.9079310  56.2909310  26.3279310  37.6069310  55.1379310  22.4039310
  37.8519310  54.2629310  22.7049310  37.3919310  55.6149310  23.2049310
  37.6109310  55.0869310  22.5449310  42.8389310  56.8869310  24.9419310
  42.5449310  57.6019310  24.3779310  42.5679310  57.1479310  25.8219310
  42.7669310  57.0119310  24.9819310  46.7919310  67.4389310  26.6429310
  45.8769310  67.4489310  26.3599310  46.9139310  66.5709310  27.0279310
  46.6899310  67.3289310  26.6559310  34.4449310  59.4029310  20.4379310
  33.5199310  59.1599310  20.4759310  34.4409310  60.3229310  20.1729310
  34.3269310  59.4899310  20.4089310  36.4139310  63.7559310  23.7269310
  37.2369310  64.2419310  23.6889310  36.4649310  63.2609310  24.5439310
  36.5259310  63.7549310  23.8259310  38.7089310  65.3929310  23.7289310
  38.1859310  66.0959310  24.1149310  38.7209310  65.5889310  22.7929310
  38.6439310  65.5079310  23.6589310  45.7519310  60.2599310  19.8929310
  46.2299310  59.9069310  19.1439310  46.2539310  61.0319310  20.1559310
  45.8769310  60.3139310  19.8309310  34.6459310  65.6959310  34.7229310
  34.6079310  66.0129310  33.8209310  33.7739310  65.3369310  34.8879310
  34.5289310  65.6899310  34.6289310  47.6039310  51.3399310  29.2919310
  47.7499310  51.7449310  30.1469310  46.6589310  51.4079310  29.1529310
  47.5019310  51.3999310  29.3839310  37.5799310  63.3929310  31.7769310
  37.9049310  62.5899310  32.1839310  36.7109310  63.1609310  31.4509310
  37.5099310  63.2609310  31.7869310  33.1959310  64.3269310  37.7459310
  33.9989310  64.8369310  37.6359310  32.7459310  64.7449310  38.4799310
  33.2409310  64.4459310  37.8259310  43.6919310  61.4749310  27.0059310
  44.1899310  61.2679310  26.2149310  43.8759310  62.3999310  27.1699310
  43.7789310  61.5669310  26.9259310  38.3169310  60.2209310  20.7469310
  37.8359310  59.4039310  20.6159310  38.7509310  60.3799310  19.9089310
  38.3109310  60.1369310  20.6229310  32.2809310  65.2579310  21.2049310
  33.0479310  64.9349310  21.6799310  31.5389310  65.0189310  21.7599310
  32.2839310  65.1859310  21.3369310  31.6189310  59.0139310  29.9009310
  32.4169310  58.6639310  29.5059310  31.5989310  58.6339310  30.7789310
  31.7179310  58.9199310  29.9629310  41.0129310  62.0709310  27.6289310
  40.6059310  62.8309310  27.2129310  41.8749310  62.0059310  27.2189310
  41.0709310  62.1599310  27.5229310  45.5499310  63.3099310  25.1109310
  46.2239310  63.7219310  25.6509310  44.7399310  63.7559310  25.3569310
  45.5329310  63.4199310  25.2109310  33.7039310  63.8009310  28.6139310
  34.6609310  63.7849310  28.5949310  33.4589310  62.9869310  29.0539310
  33.7949310  63.6949310  28.6679310  44.0069310  57.8109310  31.1529310
  43.5529310  58.2529310  30.4349310  43.4649310  57.9859310  31.9219310
  43.8799310  57.8899310  31.1589310  49.1719310  62.7389310  30.0969310
  48.7829310  62.2649310  30.8329310  48.6369310  63.5279310  30.0109310
  49.0539310  62.7789310  30.1799310  42.5459310  59.2869310  28.9629310
  43.1719310  59.7369310  28.3959310  42.4039310  58.4399310  28.5389310
  42.6079310  59.2359310  28.8359310  42.5699310  56.0319310  21.7189310
  41.8109310  56.2799310  21.1909310  43.1249310  56.8119310  21.7199310
  42.5439310  56.1639310  21.6519310  35.1049310  59.3249310  23.4359310
  35.0149310  59.0539310  22.5229310  34.2069310  59.4819310  23.7289310
  34.9779310  59.3109310  23.3569310  44.6919310  55.2159310  26.2319310
  44.0299310  55.6219310  25.6719310  45.3869310  54.9529310  25.6289310
  44.6959310  55.2349310  26.0829310  46.3049310  60.4479310  31.6109310
  46.0399310  59.7959310  32.2609310  46.5239310  59.9349310  30.8329310
  46.2989310  60.2989310  31.5949310  37.0509310  62.2409310  25.8359310
  37.2389310  61.4889310  25.2739310  37.9069310  62.6319310  26.0059310
  37.1839310  62.1949310  25.7859310  38.7069310  57.1009310  35.0759310
  39.6289310  57.1769310  35.3199310  38.2549310  57.7179310  35.6509310
  38.7669310  57.1889310  35.1799310  35.6979310  54.1109310  27.9949310
  35.8689310  55.0319310  28.1939310  36.2639310  53.6269310  28.5959310
  35.7919310  54.1669310  28.0969310  39.5009310  67.4479310  20.1189310
  40.3449310  67.4099310  20.5699310  39.7239310  67.6529310  19.2109310
  39.6379310  67.4689310  20.0609310  36.5519310  63.2379310  28.3879310
  36.8089310  62.8199310  27.5659310  36.6359310  62.5459310  29.0439310
  36.5959310  63.0959310  28.3669310  47.3579310  53.9769310  37.8109310
  46.8169310  53.4619310  38.4089310  46.8939310  54.8099310  37.7239310
  47.2299310  54.0179310  37.8769310  48.7269310  61.5279310  33.0089310
  47.8309310  61.2029310  32.9219310  48.6269310  62.4229310  33.3339310
  48.5989310  61.6009310  33.0399310  40.9229310  63.2149310  21.0469310
  41.6529310  63.8349310  21.0359310  40.1409310  63.7659310  21.0159310
  40.9159310  63.3649310  21.0409310  40.5549310  60.5959310  30.1629310
  40.1059310  59.8419310  30.5449310  41.2769310  60.2159310  29.6629310
  40.5899310  60.4509310  30.1479310  42.0899310  64.7199310  31.8749310
  41.8139310  65.5439310  32.2769310  43.0409310  64.7069310  31.9839310
  42.1769310  64.8239310  31.9399310  37.5779310  57.3329310  24.1459310
  37.4299310  58.2759310  24.0679310  36.7859310  57.0009310  24.5699310
  37.4579310  57.4109310  24.1899310  41.2289310  57.6769310  36.5649310
  40.7629310  58.2749310  37.1489310  41.8239310  58.2409310  36.0699310
  41.2449310  57.8249310  36.5759310  36.8339310  57.8219310  20.7409310
  35.9169310  57.6069310  20.9069310  37.3089310  57.4339310  21.4759310
  36.7769310  57.7449310  20.8559310  33.4759310  62.5679310  34.0119310
  32.7969310  63.2069310  34.2319310  33.0669310  61.7189310  34.1749310
  33.3359310  62.5409310  34.0609310  31.6239310  55.4769310  32.5939310
  32.4859310  55.4379310  33.0079310  31.8099310  55.6269310  31.6669310
  31.7579310  55.4909310  32.5279310  42.5409310  63.0099310  29.9609310
  42.2729310  63.6529310  30.6179310  41.7419310  62.8279310  29.4649310
  42.4039310  63.0689310  29.9809310  31.0829310  60.6479310  36.5809310
  30.4829310  61.3809310  36.7219310  31.6299310  60.6309310  37.3669310
  31.0759310  60.7399310  36.6999310  32.4389310  59.5489310  24.6239310
  32.8389310  60.1339310  25.2679310  31.9749310  60.1339310  24.0249310
  32.4309310  59.6989310  24.6299310  42.5179310  61.3439310  32.5229310
  42.3549310  61.6529310  31.6319310  41.6569310  61.0799310  32.8459310
  42.3869310  61.3499310  32.4509310  42.7399310  55.5649310  36.6609310
  42.7369310  55.2749310  35.7489310  42.0679310  56.2459310  36.6979310
  42.6529310  55.6149310  36.5489310  34.3989310  54.2279310  20.6689310
  34.3999310  54.9699310  21.2729310  34.9029310  54.5319310  19.9149310
  34.4639310  54.3619310  20.6499310  35.3149310  66.2639310  20.9529310
  35.4009310  66.2129310  20.0009310  34.7619310  67.0319310  21.1019310
  35.2549310  66.3559310  20.8499310  42.4499310  65.0069310  35.0589310
  41.6319310  64.8509310  34.5879310  42.4979310  65.9589310  35.1479310
  42.3519310  65.1089310  35.0099310  46.7999310  59.7029310  36.2899310
  47.5129310  59.0709310  36.3849310  47.2399310  60.5399310  36.1439310
  46.9469310  59.7289310  36.2829310  32.8289310  61.4849310  29.8119310
  32.0499310  61.9909310  30.0429310  32.5669310  60.5719310  29.9349310
  32.6959310  61.4329310  29.8569310  35.9249310  65.6419310  26.9179310
  35.8379310  66.4219310  27.4669310  35.9969310  64.9179310  27.5409310
  35.9229310  65.6489310  27.0679310  31.5559310  56.7259310  22.1229310
  31.4989310  56.4719310  21.2019310  31.0079310  57.5079310  22.1909310
  31.4789310  56.7939310  22.0139310  36.0269310  60.7829310  34.1019310
  35.9359310  60.6629310  33.1569310  35.3029310  61.3609310  34.3399310
  35.9229310  60.8419310  34.0109310  37.1089310  54.2989310  25.5539310
  36.7039310  53.9679310  26.3559310  37.2159310  53.5249310  25.0019310
  37.0709310  54.1579310  25.5859310  37.6519310  60.3449310  23.4399310
  38.0249310  60.2799310  22.5609310  36.7469310  60.0489310  23.3389310
  37.5839310  60.2979310  23.3149310  37.3509310  67.5019310  21.8739310
  36.6189310  67.0129310  21.4979310  38.0109310  67.5149310  21.1819310
  37.3409310  67.4409310  21.7379310  39.7969310  57.2419310  25.8249310
  38.9449310  57.1039310  25.4129310  39.8469310  58.1889310  25.9609310
  39.6949310  57.3459310  25.7899310  34.6689310  57.9099310  35.0159310
  35.4599310  57.9429310  34.4789310  34.3089310  58.7959310  34.9679310
  34.7239310  58.0269310  34.9409310  40.8419310  60.9129310  19.0639310
  40.8229310  61.5629310  19.7659310  41.1969310  60.1249310  19.4759310
  40.8849310  60.8959310  19.2059310  45.8249310  56.1629310  36.4849310
  45.8859310  55.8159310  35.5949310  44.8849310  56.2109310  36.6589310
  45.7119310  56.1249310  36.3929310  40.5149310  55.4159310  23.9159310
  40.2899310  56.2009310  24.4149310  41.4139310  55.5679310  23.6239310
  40.6019310  55.5359310  23.9429310  45.9419310  55.1359310  28.7859310
  46.8129310  54.7429310  28.8429310  45.8429310  55.3669310  27.8629310
  46.0409310  55.1149310  28.6749310  42.8499310  55.4029310  33.9199310
  42.5899310  54.6269310  33.4229310  43.8059310  55.4079310  33.8719310
  42.9389310  55.3039310  33.8499310  45.9669310  59.0009310  24.0339310
  45.7459310  58.7509310  24.9319310  46.7829310  58.5349310  23.8509310
  46.0429310  58.9089310  24.1259310  39.7699310  57.5509310  29.2009310
  38.9189310  57.1199310  29.1139310  39.8689310  57.6979310  30.1419310
  39.6729310  57.5149310  29.3099310  38.4009310  54.5719310  36.3519310
  37.8479310  54.8829310  37.0679310  38.4619310  55.3179310  35.7549310
  38.3379310  54.7069310  36.3669310  48.6579310  59.0249310  21.8699310
  47.8349310  58.5379310  21.8219310  48.4059310  59.8889310  22.1979310
  48.5209310  59.0729310  21.9059310  45.7149310  66.3579310  35.8889310
  45.0749310  65.8249310  36.3609310  45.6769310  66.0349310  34.9879310
  45.6279310  66.2479310  35.8339310  33.7449310  57.7059310  28.8149310
  33.6509310  57.2389310  27.9849310  34.5679310  57.3829310  29.1799310
  33.8379310  57.6049310  28.7559310  48.3819310  64.1949310  33.7059310
  47.4909310  64.4109310  33.9839310  48.6589310  64.9479310  33.1839310
  48.3029310  64.3189310  33.6749310  47.4499310  66.2169310  24.1379310
  47.4719310  66.3329310  25.0879310  47.6229310  67.0899310  23.7869310
  47.4749310  66.3439310  24.2149310  35.9079310  56.9639310  30.0709310
  36.3599310  56.3849310  30.6849310  36.4709310  56.9789310  29.2979310
  36.0379310  56.8919310  30.0509310  32.4899310  60.0639310  34.3399310
  31.9239310  60.4249310  33.6579310  31.9939310  60.1799310  35.1499310
  32.3539310  60.1249310  34.3559310  45.8089310  65.2339310  33.4899310
  45.1989310  64.4979310  33.5459310  45.3769310  65.8579310  32.9069310
  45.6759310  65.2189310  33.4229310  34.9069310  65.8219310  31.9149310
  34.4459310  66.1659310  31.1499310  34.9879310  64.8839310  31.7429310
  34.8579310  65.7459310  31.7949310  33.1029310  63.4629310  24.0999310
  34.0589310  63.4949310  24.1269310  32.8319310  64.3799310  24.1379310
  33.1909310  63.5839310  24.1079310  37.9429310  58.9219310  37.0429310
  37.1779310  58.5249310  37.4609310  37.6889310  59.8329310  36.8949310
  37.8119310  58.9879310  37.0779310  34.4619310  56.7529310  22.0709310
  34.7699310  56.8179310  22.9749310  33.5439310  56.4949310  22.1499310
  34.3839310  56.7279310  22.1969310  43.7709310  61.0139310  24.4549310
  44.3909310  61.4579310  23.8759310  42.9609310  61.5179310  24.3699310
  43.7469310  61.1359310  24.3699310  30.3909310  67.0659310  20.4159310
  31.0189310  66.5429310  20.9149310  30.8849310  67.3719310  19.6549310
  30.5349310  67.0379310  20.3829310  44.6639310  67.0929310  31.5089310
  44.4909310  67.0159310  30.5709310  45.4469310  67.6399310  31.5639310
  44.7419310  67.1529310  31.3959310  39.4819310  63.4769310  25.8279310
  39.9959310  62.8769310  25.2879310  39.2079310  64.1669310  25.2239310
  39.5119310  63.4879310  25.6819310  45.5239310  56.7059310  33.3869310
  45.2369310  57.5319310  33.7779310  45.3009310  56.7899310  32.4599310
  45.4579310  56.8229310  33.3189310  49.5389310  58.0419310  25.8729310
  50.1209310  58.5269310  25.2869310  48.9729310  58.7119310  26.2559310
  49.5409310  58.1899310  25.8469310  43.9179310  64.8179310  37.1809310
  43.1069310  64.8559310  36.6739310  44.2819310  63.9549310  36.9859310
  43.8609310  64.7129310  37.0909310  37.2579310  56.8609310  27.7389310
  37.0799310  57.4509310  27.0069310  37.7429310  56.1339310  27.3489310
  37.2969310  56.8439310  27.5959310  30.8629310  63.4509310  26.3159310
  31.4599310  63.7069310  25.6119310  31.1659310  63.9459310  27.0779310
  30.9779310  63.5469310  26.3229310  33.5439310  66.9579310  30.1209310
  33.8029310  67.6509310  29.5129310  32.6719310  67.2169310  30.4199310
  33.4659310  67.0799310  30.0809310  47.2319310  64.5479310  27.1019310
  48.0849310  64.2069310  26.8319310  47.2539310  64.5189310  28.0579310
  47.3439310  64.4999310  27.1889310  40.1619310  61.4589310  35.0069310
  39.4079310  61.1289310  34.5179310  39.9609310  61.2609310  35.9209310
  40.0399310  61.3909310  35.0609310  43.7119310  60.7819310  37.0759310
  42.9279310  60.7429310  37.6239310  44.3489310  60.2309310  37.5299310
  43.6929310  60.7069310  37.2039310  49.3079310  54.5739310  26.6099310
  48.7119310  54.2239310  27.2719310  50.0259310  53.9419310  26.5749310
  49.3239310  54.4489310  26.6899310  45.3779310  65.2189310  22.3169310
  45.7739310  65.5599310  23.1189310  45.8689310  65.6379310  21.6099310
  45.4909310  65.3159310  22.3289310  45.1069310  59.3049310  34.2789310
  45.7999310  59.4989310  34.9109310  44.4709310  60.0109310  34.3969310
  45.1139310  59.4199310  34.3749310  37.6839310  56.2459310  13.7379310
  37.9119310  56.2179310  14.6669310  37.0549310  55.5339310  13.6249310
  37.6329310  56.1509310  13.8429310  35.5999310  54.5319310  13.2439310
  35.0399310  54.9799310  13.8779310  35.4539310  53.6009310  13.4109310
  35.5099310  54.4699310  13.3459310  36.4189310  62.7729310   2.4919310
  36.2649310  63.2299310   3.3189310  37.1309310  62.1629310   2.6839310
  36.4899310  62.7529310   2.6219310  39.8139310  57.9819310  13.0969310
  39.2109310  57.3409310  13.4719310  40.6029310  57.9129310  13.6349310
  39.8379310  57.8919310  13.2139310  40.3519310  54.4189310  19.3749310
  41.2439310  54.1899310  19.1109310  39.8299310  54.2979310  18.5819310
  40.3999310  54.3749310  19.2399310  42.2369310  57.8079310  14.3649310
  42.4149310  56.9259310  14.6909310  42.5559310  58.3879310  15.0569310
  42.3009310  57.7689310  14.4959310  41.9249310  65.8039310   6.6109310
  41.4989310  65.1969310   6.0069310  41.2619310  66.4709310   6.7889310
  41.7859310  65.8119310   6.5569310  47.6769310  56.4359310   5.8639310
  47.7449310  55.4889310   5.7399310  48.5459310  56.7009310   6.1649310
  47.7969310  56.3489310   5.8869310  48.7959310  60.7269310   7.7049310
  48.0169310  60.8369310   8.2499310  49.1399310  61.6129310   7.5959310
  48.7399310  60.8539310   7.7609310  40.1269310  64.0429310  15.1369310
  39.9989310  63.1779310  15.5259310  40.5699310  63.8679310  14.3059310
  40.1669310  63.9099310  15.0799310  48.7389310  64.6319310   3.8859310
  48.3729310  65.2729310   4.4959310  47.9739310  64.2099310   3.4939310
  48.5939310  64.6599310   3.9139310  31.2509310  58.3729310  13.6939310
  31.5279310  58.9419310  14.4119310  30.6489310  57.7499310  14.1009310
  31.2099310  58.3659310  13.8379310  32.1239310  64.7099310  16.2869310
  31.2029310  64.4899310  16.1469310  32.2039310  64.8169310  17.2339310
  32.0159310  64.6949310  16.3899310  47.0639310  56.6619310   2.9909310
  47.1959310  56.5179310   3.9279310  46.1959310  57.0609310   2.9309310
  46.9699310  56.6939310   3.1039310  35.8259310  58.9789310   7.2639310
  35.4189310  58.9779310   6.3969310  35.3399310  59.6419310   7.7549310
  35.7119310  59.0639310   7.2159310  33.9449310  55.3749310  15.2819310
  34.1519310  56.2729310  15.5389310  33.5889310  54.9739310  16.0749310
  33.9259310  55.4379310  15.4159310  35.2529310  56.1659310   5.9819310
  34.4949310  56.1529310   6.5669310  35.7849310  55.4219310   6.2629310
  35.2239310  56.0689310   6.0929310  42.2929310  59.8639310  16.2809310
  42.8789310  60.1769310  16.9699310  41.5669310  60.4889310  16.2809310
  42.2749310  59.9839310  16.3689310  39.9129310  60.3649310   5.8129310
  39.0879310  60.3469310   5.3279310  39.6619310  60.1789310   6.7179310
  39.7749310  60.3389310   5.8669310  31.8139310  58.3769310  19.3349310
  31.6159310  58.4579310  18.4029310  31.0199310  58.6799310  19.7759310
  31.6869310  58.4259310  19.2719310  37.8879310  60.9399310  10.7579310
  38.7689310  61.2319310  10.9899310  37.9739310  60.6059310   9.8649310
  38.0119310  60.9349310  10.6729310  42.1849310  56.7589310   8.9419310
  41.2329310  56.6959310   9.0129310  42.5129310  56.0309310   9.4699310
  42.1049310  56.6579310   9.0189310  47.3139310  64.7669310  11.0639310
  47.7539310  65.2739310  11.7469310  46.6419310  64.2699310  11.5299310
  47.2849310  64.7679310  11.2109310  48.5289310  66.5349310  13.2919310
  47.8149310  67.1399310  13.0929310  49.2449310  67.0979310  13.5889310
  48.5299310  66.6839310  13.3049310  37.8339310  64.2879310  18.1279310
  37.6769310  63.3439310  18.0919310  37.7449310  64.5799310  17.2209310
  37.8019310  64.2039310  18.0069310  44.6639310  58.0839310   2.8059310
  44.7679310  58.4279310   3.6929310  44.5339310  58.8599310   2.2609310
  44.6609310  58.2269310   2.8499310  47.3059310  58.9319310  10.1329310
  48.2179310  58.9429310  10.4259310  47.3059310  58.3469310   9.3749310
  47.4229310  58.8579310  10.0739310  45.1509310  63.2689310  11.9839310
  44.2759310  63.0119310  11.6939310  45.5029310  62.4859310  12.4079310
  45.0839310  63.1359310  12.0009310  32.0619310  55.1739310  10.6969310
  32.8959310  55.6279310  10.5729310  31.4739310  55.5729310  10.0569310
  32.0939310  55.2829310  10.5999310  33.1609310  54.3069310  17.7089310
  32.3279310  53.8799310  17.9099310  33.1279310  55.1339310  18.1889310
  33.0499310  54.3579310  17.7959310  39.4959310  59.7689310   8.4469310
  39.5819310  58.9849310   8.9899310  39.9359310  60.4559310   8.9469310
  39.5629310  59.7569310   8.5799310  48.1579310  57.3869310  17.7869310
  47.2589310  57.0589310  17.7819310  48.4829310  57.2099310  16.9049310
  48.0839310  57.3219310  17.6739310  46.5919310  53.9079310   2.6609310
  46.7199310  54.8229310   2.4089310  45.6429310  53.8129310   2.7459310
  46.4869310  54.0129310   2.6399310  52.3359310  61.1739310   8.0399310
  52.3499310  60.8609310   8.9449310  52.2869310  62.1269310   8.1169310
  52.3319310  61.2559310   8.1659310  41.7289310  59.1099310   1.9229310
  41.1029310  58.3859310   1.9469310  41.9469310  59.2689310   2.8409310
  41.6769310  59.0379310   2.0429310  38.4669310  60.7579310  14.0429310
  37.6219310  60.4379310  14.3599310  38.9399310  59.9669310  13.7839310
  38.4189310  60.6159310  14.0509310  35.3939310  65.9439310  18.3769310
  36.2049310  65.4559310  18.2349310  35.1249310  66.2209310  17.5009310
  35.4629310  65.9169310  18.2459310  48.1949310  56.6249310  15.2179310
  47.3289310  56.4609310  14.8469310  48.7769310  56.0329310  14.7399310
  48.1589310  56.5279310  15.1089310  47.9009310  62.0749310   1.9239310
  47.4439310  61.8339310   2.7299310  48.8269310  61.9349310   2.1229310
  47.9609310  62.0259310   2.0529310  37.6559310  64.9839310  15.4049310
  38.5359310  64.6109310  15.3529310  37.1179310  64.4029310  14.8679310
  37.6999310  64.8619310  15.3299310  46.0259310  57.7919310   7.5119310
  46.7219310  57.4059310   6.9789310  45.4159310  57.0699310   7.6669310
  46.0369310  57.6499310   7.4629310  44.0999310  63.2409310  15.0539310
  43.5429310  62.8469310  14.3819310  43.5239310  63.8509310  15.5139310
  43.9549310  63.2689310  15.0269310  48.0139310  62.5019310  18.2479310
  47.1909310  62.8419310  17.8989310  47.8699310  62.4459310  19.1929310
  47.8909310  62.5379310  18.3239310  41.9269310  59.2279310   4.5869310
  41.1039310  59.5109310   4.9829310  42.6049310  59.6139310   5.1419310
  41.9089310  59.3129310   4.7089310  34.9389310  62.8189310  12.6799310
  34.5619310  62.6919310  13.5499310  34.3759310  62.3079310  12.0979310
  34.8189310  62.7379310  12.7169310  43.9459310  64.3289310   8.1349310
  44.4909310  64.8299310   8.7419310  43.2519310  64.9359310   7.8779310
  43.9269310  64.4699310   8.1799310  31.9289310  65.8949310   8.9559310
  32.3229310  65.8249310   8.0859310  32.5409310  65.4399310   9.5329310
  32.0579310  65.8279310   8.9179310  46.6499310  61.5749310   4.3279310
  46.6069310  62.1939310   5.0579310  46.2839310  60.7639310   4.6799310
  46.5979310  61.5509310   4.4669310  41.3999310  62.4389310   4.8069310
  40.7279310  61.7579310   4.8369310  41.4789310  62.6559310   3.8779310
  41.3239310  62.3799310   4.6919310  35.0869310  57.2919310  18.7699310
  34.9339310  57.5719310  17.8679310  34.8499310  58.0519310  19.3009310
  35.0369310  57.4249310  18.7229310  37.0199310  61.4129310  17.8759310
  36.9049310  61.1289310  16.9689310  36.1289310  61.5159310  18.2089310
  36.8909310  61.3899310  17.8019310  36.0649310  59.7399310  12.7219310
  35.4749310  59.0009310  12.5699310  36.6769310  59.7119310  11.9869310
  36.0679310  59.6419310  12.6079310  37.4499310  65.9319310  10.7539310
  37.4099310  64.9769310  10.7169310  36.9949310  66.1599310  11.5639310
  37.3869310  65.8389310  10.8529310  45.4149310  62.5849310  17.4359310
  44.7239310  61.9449310  17.6039310  45.2069310  62.9409310  16.5729310
  45.2999310  62.5479310  17.3469310  31.0329310  61.6869310   4.5729310
  31.6979310  62.2869310   4.9109310  30.2009310  62.1209310   4.7619310
  31.0119310  61.8189310   4.6409310  33.3659310  66.1319310   6.7749310
  34.0449310  65.8519310   7.3889310  33.4639310  67.0819310   6.7259310
  33.4649310  66.2179310   6.8479310  33.0359310  56.3229310   7.5399310
  32.7979310  55.5039310   7.1059310  32.2749310  56.8909310   7.4129310
  32.9079310  56.2909310   7.4679310  37.6069310  55.1379310   3.5439310
  37.8519310  54.2629310   3.8449310  37.3919310  55.6149310   4.3449310
  37.6109310  55.0869310   3.6849310  42.8389310  56.8869310   6.0819310
  42.5449310  57.6019310   5.5179310  42.5679310  57.1479310   6.9619310
  42.7669310  57.0119310   6.1219310  46.7919310  67.4389310   7.7829310
  45.8769310  67.4489310   7.4999310  46.9139310  66.5709310   8.1679310
  46.6899310  67.3289310   7.7959310  36.4139310  63.7559310   4.8669310
  37.2369310  64.2419310   4.8289310  36.4649310  63.2609310   5.6839310
  36.5259310  63.7549310   4.9659310  38.7089310  65.3929310   4.8689310
  38.1859310  66.0959310   5.2549310  38.7209310  65.5889310   3.9329310
  38.6439310  65.5079310   4.7989310  34.6459310  65.6959310  15.8629310
  34.6079310  66.0129310  14.9609310  33.7739310  65.3369310  16.0279310
  34.5289310  65.6899310  15.7689310  47.6039310  51.3399310  10.4319310
  47.7499310  51.7449310  11.2869310  46.6589310  51.4079310  10.2929310
  47.5019310  51.3999310  10.5239310  37.5799310  63.3929310  12.9169310
  37.9049310  62.5899310  13.3239310  36.7109310  63.1609310  12.5909310
  37.5099310  63.2609310  12.9269310  33.1959310  64.3269310  18.8859310
  33.9989310  64.8369310  18.7759310  32.7459310  64.7449310  19.6199310
  33.2409310  64.4459310  18.9659310  43.6919310  61.4749310   8.1459310
  44.1899310  61.2679310   7.3549310  43.8759310  62.3999310   8.3099310
  43.7789310  61.5669310   8.0659310  32.2809310  65.2579310   2.3449310
  33.0479310  64.9349310   2.8199310  31.5389310  65.0189310   2.8999310
  32.2839310  65.1859310   2.4769310  31.6189310  59.0139310  11.0409310
  32.4169310  58.6639310  10.6459310  31.5989310  58.6339310  11.9189310
  31.7179310  58.9199310  11.1029310  41.0129310  62.0709310   8.7689310
  40.6059310  62.8309310   8.3529310  41.8749310  62.0059310   8.3589310
  41.0709310  62.1599310   8.6629310  45.5499310  63.3099310   6.2509310
  46.2239310  63.7219310   6.7909310  44.7399310  63.7559310   6.4969310
  45.5329310  63.4199310   6.3509310  33.7039310  63.8009310   9.7539310
  34.6609310  63.7849310   9.7349310  33.4589310  62.9869310  10.1939310
  33.7949310  63.6949310   9.8079310  44.0069310  57.8109310  12.2929310
  43.5529310  58.2529310  11.5749310  43.4649310  57.9859310  13.0619310
  43.8799310  57.8899310  12.2989310  49.1719310  62.7389310  11.2369310
  48.7829310  62.2649310  11.9729310  48.6369310  63.5279310  11.1509310
  49.0539310  62.7789310  11.3199310  42.5459310  59.2869310  10.1029310
  43.1719310  59.7369310   9.5359310  42.4039310  58.4399310   9.6789310
  42.6079310  59.2359310   9.9759310  42.5699310  56.0319310   2.8589310
  41.8109310  56.2799310   2.3309310  43.1249310  56.8119310   2.8599310
  42.5439310  56.1639310   2.7919310  35.1049310  59.3249310   4.5759310
  35.0149310  59.0539310   3.6629310  34.2069310  59.4819310   4.8689310
  34.9779310  59.3109310   4.4969310  44.6919310  55.2159310   7.3719310
  44.0299310  55.6219310   6.8119310  45.3869310  54.9529310   6.7689310
  44.6959310  55.2349310   7.2229310  46.3049310  60.4479310  12.7509310
  46.0399310  59.7959310  13.4009310  46.5239310  59.9349310  11.9729310
  46.2989310  60.2989310  12.7349310  37.0509310  62.2409310   6.9759310
  37.2389310  61.4889310   6.4139310  37.9069310  62.6319310   7.1459310
  37.1839310  62.1949310   6.9259310  38.7069310  57.1009310  16.2159310
  39.6289310  57.1769310  16.4599310  38.2549310  57.7179310  16.7909310
  38.7669310  57.1889310  16.3199310  35.6979310  54.1109310   9.1349310
  35.8689310  55.0319310   9.3339310  36.2639310  53.6269310   9.7359310
  35.7919310  54.1669310   9.2369310  36.5519310  63.2379310   9.5279310
  36.8089310  62.8199310   8.7059310  36.6359310  62.5459310  10.1839310
  36.5959310  63.0959310   9.5069310  47.3579310  53.9769310  18.9509310
  46.8169310  53.4619310  19.5489310  46.8939310  54.8099310  18.8639310
  47.2299310  54.0179310  19.0169310  48.7269310  61.5279310  14.1489310
  47.8309310  61.2029310  14.0619310  48.6269310  62.4229310  14.4739310
  48.5989310  61.6009310  14.1799310  40.9229310  63.2149310   2.1869310
  41.6529310  63.8349310   2.1759310  40.1409310  63.7659310   2.1559310
  40.9159310  63.3649310   2.1809310  40.5549310  60.5959310  11.3029310
  40.1059310  59.8419310  11.6849310  41.2769310  60.2159310  10.8029310
  40.5899310  60.4509310  11.2879310  42.0899310  64.7199310  13.0149310
  41.8139310  65.5439310  13.4169310  43.0409310  64.7069310  13.1239310
  42.1769310  64.8239310  13.0799310  37.5779310  57.3329310   5.2859310
  37.4299310  58.2759310   5.2079310  36.7859310  57.0009310   5.7099310
  37.4579310  57.4109310   5.3299310  41.2289310  57.6769310  17.7049310
  40.7629310  58.2749310  18.2889310  41.8239310  58.2409310  17.2099310
  41.2449310  57.8249310  17.7159310  36.8339310  57.8219310   1.8809310
  35.9169310  57.6069310   2.0469310  37.3089310  57.4339310   2.6159310
  36.7769310  57.7449310   1.9959310  33.4759310  62.5679310  15.1519310
  32.7969310  63.2069310  15.3719310  33.0669310  61.7189310  15.3149310
  33.3359310  62.5409310  15.2009310  31.6239310  55.4769310  13.7339310
  32.4859310  55.4379310  14.1479310  31.8099310  55.6269310  12.8069310
  31.7579310  55.4909310  13.6679310  42.5409310  63.0099310  11.1009310
  42.2729310  63.6529310  11.7579310  41.7419310  62.8279310  10.6049310
  42.4039310  63.0689310  11.1209310  31.0829310  60.6479310  17.7209310
  30.4829310  61.3809310  17.8619310  31.6299310  60.6309310  18.5069310
  31.0759310  60.7399310  17.8399310  32.4389310  59.5489310   5.7639310
  32.8389310  60.1339310   6.4079310  31.9749310  60.1339310   5.1649310
  32.4309310  59.6989310   5.7699310  42.5179310  61.3439310  13.6629310
  42.3549310  61.6529310  12.7719310  41.6569310  61.0799310  13.9859310
  42.3869310  61.3499310  13.5909310  42.7399310  55.5649310  17.8009310
  42.7369310  55.2749310  16.8889310  42.0679310  56.2459310  17.8379310
  42.6529310  55.6149310  17.6889310  42.4499310  65.0069310  16.1989310
  41.6319310  64.8509310  15.7279310  42.4979310  65.9589310  16.2879310
  42.3519310  65.1089310  16.1499310  46.7999310  59.7029310  17.4299310
  47.5129310  59.0709310  17.5249310  47.2399310  60.5399310  17.2839310
  46.9469310  59.7289310  17.4229310  32.8289310  61.4849310  10.9519310
  32.0499310  61.9909310  11.1829310  32.5669310  60.5719310  11.0749310
  32.6959310  61.4329310  10.9969310  35.9249310  65.6419310   8.0579310
  35.8379310  66.4219310   8.6069310  35.9969310  64.9179310   8.6809310
  35.9229310  65.6489310   8.2079310  31.5559310  56.7259310   3.2629310
  31.4989310  56.4719310   2.3419310  31.0079310  57.5079310   3.3309310
  31.4789310  56.7939310   3.1539310  36.0269310  60.7829310  15.2419310
  35.9359310  60.6629310  14.2969310  35.3029310  61.3609310  15.4799310
  35.9229310  60.8419310  15.1509310  37.1089310  54.2989310   6.6939310
  36.7039310  53.9679310   7.4959310  37.2159310  53.5249310   6.1419310
  37.0709310  54.1579310   6.7259310  37.6519310  60.3449310   4.5799310
  38.0249310  60.2799310   3.7009310  36.7469310  60.0489310   4.4789310
  37.5839310  60.2979310   4.4549310  37.3509310  67.5019310   3.0139310
  36.6189310  67.0129310   2.6379310  38.0109310  67.5149310   2.3219310
  37.3409310  67.4409310   2.8779310  39.7969310  57.2419310   6.9649310
  38.9449310  57.1039310   6.5529310  39.8469310  58.1889310   7.1009310
  39.6949310  57.3459310   6.9299310  34.6689310  57.9099310  16.1559310
  35.4599310  57.9429310  15.6189310  34.3089310  58.7959310  16.1079310
  34.7239310  58.0269310  16.0809310  45.8249310  56.1629310  17.6249310
  45.8859310  55.8159310  16.7349310  44.8849310  56.2109310  17.7989310
  45.7119310  56.1249310  17.5329310  40.5149310  55.4159310   5.0559310
  40.2899310  56.2009310   5.5549310  41.4139310  55.5679310   4.7639310
  40.6019310  55.5359310   5.0829310  45.9419310  55.1359310   9.9259310
  46.8129310  54.7429310   9.9829310  45.8429310  55.3669310   9.0029310
  46.0409310  55.1149310   9.8149310  42.8499310  55.4029310  15.0599310
  42.5899310  54.6269310  14.5629310  43.8059310  55.4079310  15.0119310
  42.9389310  55.3039310  14.9899310  45.9669310  59.0009310   5.1739310
  45.7459310  58.7509310   6.0719310  46.7829310  58.5349310   4.9909310
  46.0429310  58.9089310   5.2659310  39.7699310  57.5509310  10.3409310
  38.9189310  57.1199310  10.2539310  39.8689310  57.6979310  11.2819310
  39.6729310  57.5149310  10.4499310  38.4009310  54.5719310  17.4919310
  37.8479310  54.8829310  18.2079310  38.4619310  55.3179310  16.8949310
  38.3379310  54.7069310  17.5069310  48.6579310  59.0249310   3.0099310
  47.8349310  58.5379310   2.9619310  48.4059310  59.8889310   3.3379310
  48.5209310  59.0729310   3.0459310  45.7149310  66.3579310  17.0289310
  45.0749310  65.8249310  17.5009310  45.6769310  66.0349310  16.1279310
  45.6279310  66.2479310  16.9739310  33.7449310  57.7059310   9.9549310
  33.6509310  57.2389310   9.1249310  34.5679310  57.3829310  10.3199310
  33.8379310  57.6049310   9.8959310  48.3819310  64.1949310  14.8459310
  47.4909310  64.4109310  15.1239310  48.6589310  64.9479310  14.3239310
  48.3029310  64.3189310  14.8149310  47.4499310  66.2169310   5.2779310
  47.4719310  66.3329310   6.2279310  47.6229310  67.0899310   4.9269310
  47.4749310  66.3439310   5.3549310  35.9079310  56.9639310  11.2109310
  36.3599310  56.3849310  11.8249310  36.4709310  56.9789310  10.4379310
  36.0379310  56.8919310  11.1909310  32.4899310  60.0639310  15.4799310
  31.9239310  60.4249310  14.7979310  31.9939310  60.1799310  16.2899310
  32.3539310  60.1249310  15.4959310  45.8089310  65.2339310  14.6299310
  45.1989310  64.4979310  14.6859310  45.3769310  65.8579310  14.0469310
  45.6759310  65.2189310  14.5629310  34.9069310  65.8219310  13.0549310
  34.4459310  66.1659310  12.2899310  34.9879310  64.8839310  12.8829310
  34.8579310  65.7459310  12.9349310  33.1029310  63.4629310   5.2399310
  34.0589310  63.4949310   5.2669310  32.8319310  64.3799310   5.2779310
  33.1909310  63.5839310   5.2479310  37.9429310  58.9219310  18.1829310
  37.1779310  58.5249310  18.6009310  37.6889310  59.8329310  18.0349310
  37.8119310  58.9879310  18.2179310  34.4619310  56.7529310   3.2109310
  34.7699310  56.8179310   4.1149310  33.5439310  56.4949310   3.2899310
  34.3839310  56.7279310   3.3369310  43.7709310  61.0139310   5.5949310
  44.3909310  61.4579310   5.0159310  42.9609310  61.5179310   5.5099310
  43.7469310  61.1359310   5.5099310  44.6639310  67.0929310  12.6489310
  44.4909310  67.0159310  11.7109310  45.4469310  67.6399310  12.7039310
  44.7419310  67.1529310  12.5359310  39.4819310  63.4769310   6.9679310
  39.9959310  62.8769310   6.4279310  39.2079310  64.1669310   6.3639310
  39.5119310  63.4879310   6.8219310  45.5239310  56.7059310  14.5269310
  45.2369310  57.5319310  14.9179310  45.3009310  56.7899310  13.5999310
  45.4579310  56.8229310  14.4589310  49.5389310  58.0419310   7.0129310
  50.1209310  58.5269310   6.4269310  48.9729310  58.7119310   7.3959310
  49.5409310  58.1899310   6.9869310  43.9179310  64.8179310  18.3209310
  43.1069310  64.8559310  17.8139310  44.2819310  63.9549310  18.1259310
  43.8609310  64.7129310  18.2309310  37.2579310  56.8609310   8.8789310
  37.0799310  57.4509310   8.1469310  37.7429310  56.1339310   8.4889310
  37.2969310  56.8439310   8.7359310  30.8629310  63.4509310   7.4559310
  31.4599310  63.7069310   6.7519310  31.1659310  63.9459310   8.2179310
  30.9779310  63.5469310   7.4629310  33.5439310  66.9579310  11.2609310
  33.8029310  67.6509310  10.6529310  32.6719310  67.2169310  11.5599310
  33.4659310  67.0799310  11.2209310  47.2319310  64.5479310   8.2419310
  48.0849310  64.2069310   7.9719310  47.2539310  64.5189310   9.1979310
  47.3439310  64.4999310   8.3289310  40.1619310  61.4589310  16.1469310
  39.4079310  61.1289310  15.6579310  39.9609310  61.2609310  17.0609310
  40.0399310  61.3909310  16.2009310  43.7119310  60.7819310  18.2159310
  42.9279310  60.7429310  18.7639310  44.3489310  60.2309310  18.6699310
  43.6929310  60.7069310  18.3439310  49.3079310  54.5739310   7.7499310
  48.7119310  54.2239310   8.4119310  50.0259310  53.9419310   7.7149310
  49.3239310  54.4489310   7.8299310  45.3779310  65.2189310   3.4569310
  45.7739310  65.5599310   4.2589310  45.8689310  65.6379310   2.7499310
  45.4909310  65.3159310   3.4689310  45.1069310  59.3049310  15.4189310
  45.7999310  59.4989310  16.0509310  44.4709310  60.0109310  15.5369310
  45.1139310  59.4199310  15.5149310  37.6839310  37.3789310  70.3179310
  37.9119310  37.3509310  71.2469310  37.0549310  36.6669310  70.2049310
  37.6329310  37.2839310  70.4229310  35.0829310  51.5649310  70.5779310
  34.1289310  51.4969310  70.5459310  35.2719310  51.8719310  71.4639310
  34.9849310  51.5959310  70.6869310  39.8479310  49.0089310  63.7409310
  39.6739310  49.1699310  64.6689310  39.0829310  48.5229310  63.4349310
  39.7279310  48.9669310  63.8209310  35.5999310  35.6649310  69.8239310
  35.0399310  36.1129310  70.4579310  35.4539310  34.7339310  69.9909310
  35.5099310  35.6029310  69.9259310  36.4189310  43.9059310  59.0719310
  36.2649310  44.3629310  59.8989310  37.1309310  43.2959310  59.2639310
  36.4899310  43.8859310  59.2019310  39.8139310  39.1149310  69.6769310
  39.2109310  38.4739310  70.0519310  40.6029310  39.0459310  70.2149310
  39.8379310  39.0249310  69.7939310  46.5799310  50.0649310  57.2579310
  45.7179310  50.3929310  57.0019310  46.4839310  49.1129310  57.2569310
  46.4569310  49.9849310  57.2249310  33.3059310  50.1619310  64.0349310
  33.3439310  51.0549310  63.6909310  32.5069310  50.1409310  64.5609310
  33.2089310  50.2739310  64.0579310  38.0169310  51.9519310  60.7239310
  37.2179310  51.4249310  60.7339310  38.3609310  51.8489310  59.8369310
  37.9589310  51.8709310  60.6119310  42.2369310  38.9409310  70.9449310
  42.4149310  38.0589310  71.2709310  42.5559310  39.5209310  71.6369310
  42.3009310  38.9019310  71.0759310  41.9249310  46.9369310  63.1909310
  41.4989310  46.3299310  62.5869310  41.2619310  47.6039310  63.3689310
  41.7859310  46.9449310  63.1369310  47.6769310  37.5689310  62.4439310
  47.7449310  36.6219310  62.3199310  48.5459310  37.8339310  62.7449310
  47.7969310  37.4819310  62.4669310  48.7959310  41.8599310  64.2849310
  48.0169310  41.9699310  64.8299310  49.1399310  42.7459310  64.1759310
  48.7399310  41.9869310  64.3409310  40.1269310  45.1759310  71.7169310
  39.9989310  44.3109310  72.1059310  40.5699310  45.0009310  70.8859310
  40.1669310  45.0429310  71.6599310  43.0029310  46.1279310  58.7359310
  43.7729310  46.1489310  59.3029310  43.3219310  45.7609310  57.9119310
  43.1419310  46.0839310  58.7029310  48.7389310  45.7649310  60.4659310
  48.3729310  46.4059310  61.0759310  47.9739310  45.3429310  60.0739310
  48.5939310  45.7929310  60.4939310  31.2509310  39.5059310  70.2739310
  31.5279310  40.0749310  70.9919310  30.6489310  38.8829310  70.6809310
  31.2099310  39.4989310  70.4179310  46.7209310  47.3649310  57.4829310
  46.7629310  47.2309310  56.5359310  47.6069310  47.6319310  57.7259310
  46.8399310  47.3819310  57.3929310  32.1239310  45.8429310  72.8669310
  31.2029310  45.6229310  72.7269310  32.2039310  45.9499310  73.8139310
  32.0159310  45.8279310  72.9699310  47.0639310  37.7949310  59.5709310
  47.1959310  37.6509310  60.5079310  46.1959310  38.1939310  59.5109310
  46.9699310  37.8269310  59.6839310  43.7139310  49.5319310  64.0719310
  43.8899310  50.3819310  63.6689310  42.9549310  49.1949310  63.5979310
  43.6399310  49.5979310  63.9599310  43.5039310  52.8569310  65.3239310
  44.0899310  53.5939310  65.1489310  42.7219310  53.0429310  64.8049310
  43.4789310  52.9749310  65.2349310  35.8259310  40.1119310  63.8439310
  35.4189310  40.1109310  62.9769310  35.3399310  40.7749310  64.3349310
  35.7119310  40.1969310  63.7959310  33.9449310  36.5079310  71.8619310
  34.1519310  37.4059310  72.1189310  33.5889310  36.1069310  72.6549310
  33.9259310  36.5709310  71.9959310  35.2529310  37.2989310  62.5619310
  34.4949310  37.2859310  63.1469310  35.7849310  36.5549310  62.8429310
  35.2239310  37.2019310  62.6729310  42.2929310  40.9969310  72.8609310
  42.8789310  41.3099310  73.5499310  41.5669310  41.6219310  72.8609310
  42.2749310  41.1169310  72.9489310  39.9129310  41.4979310  62.3929310
  39.0879310  41.4799310  61.9079310  39.6619310  41.3119310  63.2979310
  39.7749310  41.4719310  62.4469310  37.0269310  51.1629310  67.0099310
  36.7659310  50.7879310  67.8509310  37.7579310  50.6179310  66.7209310
  37.0869310  51.0449310  67.0799310  35.2649310  49.3559310  65.7249310
  34.5409310  49.6589310  65.1769310  35.8589310  50.1059310  65.7729310
  35.2489310  49.4909310  65.6609310  39.1649310  51.5819310  58.3559310
  39.6239310  50.7599310  58.5279310  39.8629310  52.2219310  58.2169310
  39.3129310  51.5589310  58.3599310  37.8879310  42.0729310  67.3379310
  38.7689310  42.3649310  67.5699310  37.9739310  41.7389310  66.4449310
  38.0119310  42.0679310  67.2529310  42.1849310  37.8919310  65.5219310
  41.2329310  37.8289310  65.5929310  42.5129310  37.1639310  66.0499310
  42.1049310  37.7909310  65.5989310  47.3139310  45.8999310  67.6439310
  47.7539310  46.4069310  68.3269310  46.6419310  45.4029310  68.1099310
  47.2849310  45.9009310  67.7909310  48.5289310  47.6679310  69.8719310
  47.8149310  48.2729310  69.6729310  49.2449310  48.2309310  70.1689310
  48.5299310  47.8169310  69.8849310  42.0409310  48.7289310  58.8099310
  42.3449310  47.8359310  58.9659310  42.5679310  49.2689310  59.3989310
  42.1469310  48.6839310  58.9049310  44.6639310  39.2169310  59.3859310
  44.7679310  39.5609310  60.2729310  44.5339310  39.9929310  58.8409310
  44.6609310  39.3599310  59.4299310  47.3059310  40.0649310  66.7129310
  48.2179310  40.0759310  67.0059310  47.3059310  39.4799310  65.9549310
  47.4229310  39.9909310  66.6539310  45.1509310  44.4019310  68.5639310
  44.2759310  44.1449310  68.2739310  45.5029310  43.6189310  68.9879310
  45.0839310  44.2689310  68.5809310  34.8599310  51.3179310  73.7219310
  34.6079310  52.2219310  73.9129310  35.7649310  51.2529310  74.0249310
  34.9439310  51.4259310  73.7849310  32.0619310  36.3069310  67.2769310
  32.8959310  36.7609310  67.1529310  31.4739310  36.7059310  66.6369310
  32.0939310  36.4159310  67.1799310  39.4959310  40.9019310  65.0269310
  39.5819310  40.1179310  65.5699310  39.9359310  41.5889310  65.5269310
  39.5629310  40.8899310  65.1599310  48.1579310  38.5199310  74.3669310
  47.2589310  38.1919310  74.3619310  48.4829310  38.3429310  73.4849310
  48.0839310  38.4549310  74.2539310  48.1739310  49.6419310  60.3629310
  48.2949310  50.5169310  59.9949310  48.3829310  49.0479310  59.6419310
  48.2159310  49.6779310  60.2229310  46.5919310  35.0409310  59.2409310
  46.7199310  35.9559310  58.9889310  45.6429310  34.9459310  59.3259310
  46.4869310  35.1459310  59.2199310  32.5709310  53.1239310  61.5459310
  31.7899310  52.9929310  61.0079310  32.5409310  54.0489310  61.7899310
  32.4669310  53.2259310  61.5079310  42.6219310  48.9259310  73.4969310
  43.2039310  48.7619310  74.2379310  42.0289310  49.6119310  73.8049310
  42.6199310  48.9929310  73.6309310  38.9239310  49.3899310  66.2359310
  38.4439310  48.5819310  66.4129310  39.6539310  49.3759310  66.8549310
  38.9559310  49.2849310  66.3379310  49.7669310  36.3789310  57.2419310
  49.5909310  37.2199310  56.8209310  48.9579310  35.8799310  57.1279310
  49.6409310  36.4229310  57.1739310  52.3359310  42.3069310  64.6199310
  52.3499310  41.9939310  65.5249310  52.2869310  43.2599310  64.6969310
  52.3319310  42.3889310  64.7459310  41.7289310  40.2429310  58.5029310
  41.1029310  39.5189310  58.5269310  41.9469310  40.4019310  59.4209310
  41.6769310  40.1709310  58.6229310  38.4669310  41.8909310  70.6229310
  37.6219310  41.5709310  70.9399310  38.9399310  41.0999310  70.3639310
  38.4189310  41.7489310  70.6309310  34.3019310  51.6489310  60.0799310
  33.7199310  52.1469310  60.6529310  34.5309310  52.2599310  59.3799310
  34.2569310  51.7909310  60.0639310  48.1949310  37.7579310  71.7979310
  47.3289310  37.5939310  71.4269310  48.7769310  37.1659310  71.3199310
  48.1589310  37.6609310  71.6889310  47.9009310  43.2079310  58.5039310
  47.4439310  42.9669310  59.3099310  48.8269310  43.0679310  58.7029310
  47.9609310  43.1589310  58.6329310  37.6559310  46.1169310  71.9849310
  38.5359310  45.7439310  71.9329310  37.1179310  45.5359310  71.4479310
  37.6999310  45.9949310  71.9099310  46.6449310  49.8279310  70.3419310
  46.2939310  49.7249310  71.2269310  46.7929310  50.7699310  70.2519310
  46.6189310  49.9349310  70.4439310  48.7819310  51.5949310  72.2209310
  48.9799310  51.1999310  73.0709310  48.1109310  52.2499310  72.4119310
  48.7209310  51.6279310  72.3539310  46.0259310  38.9249310  64.0919310
  46.7219310  38.5389310  63.5589310  45.4159310  38.2029310  64.2469310
  46.0369310  38.7829310  64.0429310  44.0999310  44.3739310  71.6339310
  43.5429310  43.9799310  70.9619310  43.5239310  44.9839310  72.0939310
  43.9549310  44.4019310  71.6069310  41.9269310  40.3609310  61.1669310
  41.1039310  40.6439310  61.5629310  42.6049310  40.7469310  61.7219310
  41.9089310  40.4459310  61.2889310  34.9389310  43.9519310  69.2599310
  34.5619310  43.8249310  70.1299310  34.3759310  43.4409310  68.6779310
  34.8189310  43.8709310  69.2969310  43.9459310  45.4619310  64.7149310
  44.4909310  45.9629310  65.3219310  43.2519310  46.0689310  64.4579310
  43.9269310  45.6029310  64.7599310  31.9289310  47.0279310  65.5359310
  32.3229310  46.9579310  64.6659310  32.5409310  46.5729310  66.1129310
  32.0579310  46.9609310  65.4979310  46.6499310  42.7079310  60.9079310
  46.6069310  43.3269310  61.6379310  46.2839310  41.8969310  61.2599310
  46.5979310  42.6839310  61.0469310  41.3999310  43.5719310  61.3869310
  40.7279310  42.8909310  61.4169310  41.4789310  43.7889310  60.4579310
  41.3239310  43.5129310  61.2719310  42.5859310  52.5509310  70.5049310
  42.0369310  52.4819310  69.7249310  42.9499310  51.6739310  70.6209310
  42.5629310  52.4299310  70.4199310  36.0649310  40.8729310  69.3019310
  35.4749310  40.1339310  69.1499310  36.6769310  40.8449310  68.5669310
  36.0679310  40.7749310  69.1879310  37.4499310  47.0649310  67.3339310
  37.4099310  46.1099310  67.2969310  36.9949310  47.2929310  68.1439310
  37.3869310  46.9719310  67.4329310  45.4149310  43.7179310  74.0159310
  44.7239310  43.0779310  74.1839310  45.2069310  44.0739310  73.1529310
  45.2999310  43.6809310  73.9269310  31.0329310  42.8199310  61.1529310
  31.6979310  43.4199310  61.4909310  30.2009310  43.2539310  61.3419310
  31.0119310  42.9519310  61.2209310  33.3659310  47.2649310  63.3549310
  34.0449310  46.9849310  63.9689310  33.4639310  48.2149310  63.3059310
  33.4649310  47.3509310  63.4279310  38.7799310  46.0009310  58.4419310
  38.3969310  45.6919310  57.6209310  39.0189310  46.9119310  58.2669310
  38.7619310  46.0779310  58.3149310  33.0359310  37.4559310  64.1199310
  32.7979310  36.6369310  63.6859310  32.2749310  38.0239310  63.9929310
  32.9079310  37.4239310  64.0479310  42.8389310  38.0199310  62.6619310
  42.5449310  38.7349310  62.0979310  42.5679310  38.2809310  63.5419310
  42.7669310  38.1449310  62.7019310  41.2929310  49.6759310  67.7439310
  41.2289310  49.1559310  68.5459310  41.8379310  50.4249310  67.9869310
  41.3539310  49.7049310  67.8779310  46.7919310  48.5719310  64.3629310
  45.8769310  48.5819310  64.0799310  46.9139310  47.7039310  64.7479310
  46.6899310  48.4619310  64.3759310  36.4139310  44.8889310  61.4469310
  37.2369310  45.3749310  61.4089310  36.4649310  44.3939310  62.2639310
  36.5259310  44.8879310  61.5459310  33.1049310  52.7639310  65.5229310
  32.5629310  53.1869310  66.1899310  34.0039310  52.9609310  65.7849310
  33.1499310  52.8439310  65.6419310  38.7089310  46.5259310  61.4489310
  38.1859310  47.2289310  61.8349310  38.7209310  46.7219310  60.5129310
  38.6439310  46.6409310  61.3789310  34.6459310  46.8289310  72.4429310
  34.6079310  47.1459310  71.5409310  33.7739310  46.4699310  72.6079310
  34.5289310  46.8229310  72.3489310  38.5539310  48.5689310  71.0179310
  37.7709310  48.9749310  70.6489310  38.2659310  47.6979310  71.2909310
  38.4169310  48.5089310  71.0059310  32.2919310  50.5809310  67.7609310
  32.9469310  50.9419310  67.1639310  31.6139310  50.2259310  67.1859310
  32.2889310  50.5819310  67.6109310  47.6039310  32.4729310  67.0119310
  47.7499310  32.8779310  67.8669310  46.6589310  32.5409310  66.8729310
  47.5019310  32.5329310  67.1039310  37.5799310  44.5259310  69.4969310
  37.9049310  43.7229310  69.9039310  36.7109310  44.2939310  69.1709310
  37.5099310  44.3939310  69.5069310  43.6919310  42.6079310  64.7259310
  44.1899310  42.4009310  63.9349310  43.8759310  43.5329310  64.8899310
  43.7789310  42.6999310  64.6459310  48.3799310  53.3799310  66.7939310
  48.2329310  52.4369310  66.8749310  49.0339310  53.5779310  67.4649310
  48.4449310  53.2839310  66.8899310  49.7129310  49.6579310  65.5799310
  48.8689310  50.0709310  65.7639310  49.5809310  48.7359310  65.7979310
  49.5879310  49.5929310  65.6309310  31.6189310  40.1469310  67.6209310
  32.4169310  39.7969310  67.2259310  31.5989310  39.7669310  68.4989310
  31.7179310  40.0529310  67.6829310  41.0129310  43.2039310  65.3489310
  40.6059310  43.9639310  64.9329310  41.8749310  43.1389310  64.9389310
  41.0709310  43.2929310  65.2429310  45.5499310  44.4429310  62.8309310
  46.2239310  44.8549310  63.3709310  44.7399310  44.8889310  63.0769310
  45.5329310  44.5529310  62.9309310  33.7039310  44.9339310  66.3339310
  34.6609310  44.9179310  66.3149310  33.4589310  44.1199310  66.7739310
  33.7949310  44.8279310  66.3879310  44.0069310  38.9439310  68.8729310
  43.5529310  39.3859310  68.1549310  43.4649310  39.1189310  69.6419310
  43.8799310  39.0229310  68.8789310  49.1719310  43.8719310  67.8169310
  48.7829310  43.3979310  68.5529310  48.6369310  44.6609310  67.7309310
  49.0539310  43.9119310  67.8999310  42.5459310  40.4199310  66.6829310
  43.1719310  40.8699310  66.1159310  42.4039310  39.5729310  66.2589310
  42.6079310  40.3689310  66.5559310  41.0809310  48.2969310  70.1819310
  41.4739310  49.1179310  70.4779310  40.1679310  48.3519310  70.4639310
  41.0149310  48.4089310  70.2559310  42.5699310  37.1649310  59.4389310
  41.8109310  37.4129310  58.9109310  43.1249310  37.9449310  59.4399310
  42.5439310  37.2969310  59.3719310  35.1049310  40.4579310  61.1559310
  35.0149310  40.1869310  60.2429310  34.2069310  40.6149310  61.4489310
  34.9779310  40.4439310  61.0769310  44.6919310  36.3489310  63.9519310
  44.0299310  36.7549310  63.3919310  45.3869310  36.0859310  63.3489310
  44.6959310  36.3679310  63.8029310  46.3049310  41.5809310  69.3309310
  46.0399310  40.9289310  69.9809310  46.5239310  41.0679310  68.5529310
  46.2989310  41.4319310  69.3149310  37.0509310  43.3739310  63.5559310
  37.2389310  42.6219310  62.9939310  37.9069310  43.7649310  63.7259310
  37.1839310  43.3279310  63.5059310  38.7069310  38.2339310  72.7959310
  39.6289310  38.3099310  73.0399310  38.2549310  38.8509310  73.3709310
  38.7669310  38.3219310  72.8999310  35.6979310  35.2439310  65.7149310
  35.8689310  36.1649310  65.9139310  36.2639310  34.7599310  66.3159310
  35.7919310  35.2999310  65.8169310  36.5519310  44.3709310  66.1079310
  36.8089310  43.9529310  65.2859310  36.6359310  43.6789310  66.7639310
  36.5959310  44.2289310  66.0869310  43.8639310  48.8259310  66.5669310
  43.9619310  49.0729310  65.6469310  43.0099310  49.1759310  66.8189310
  43.7669310  48.9019310  66.4819310  41.2539310  53.2399310  63.9059310
  41.0689310  52.4129310  63.4599310  40.9419310  53.9129310  63.3009310
  41.1899310  53.2199310  63.7709310  42.8419310  52.4749310  56.9959310
  42.9999310  53.3139310  56.5629310  43.1039310  52.6219310  57.9049310
  42.8959310  52.6009310  57.0569310  44.9519310  51.2519310  67.1059310
  44.4079310  51.8519310  66.5949310  44.5609310  50.3909310  66.9599310
  44.8329310  51.2189310  67.0219310  48.7269310  42.6609310  70.7289310
  47.8309310  42.3359310  70.6419310  48.6269310  43.5559310  71.0539310
  48.5989310  42.7339310  70.7599310  39.0439310  53.6199310  66.0789310
  39.0099310  52.9329310  66.7439310  39.5199310  53.2249310  65.3489310
  39.0999310  53.4819310  66.0709310  40.9229310  44.3479310  58.7669310
  41.6529310  44.9679310  58.7559310  40.1409310  44.8989310  58.7359310
  40.9159310  44.4979310  58.7609310  40.5549310  41.7289310  67.8829310
  40.1059310  40.9749310  68.2649310  41.2769310  41.3489310  67.3829310
  40.5899310  41.5839310  67.8679310  42.0899310  45.8529310  69.5949310
  41.8139310  46.6769310  69.9969310  43.0409310  45.8399310  69.7039310
  42.1769310  45.9569310  69.6599310  37.5779310  38.4659310  61.8659310
  37.4299310  39.4089310  61.7879310  36.7859310  38.1339310  62.2899310
  37.4579310  38.5439310  61.9099310  41.4459310  53.0759310  67.8439310
  42.2359310  53.6139310  67.7899310  40.8459310  53.4679310  67.2099310
  41.4699310  53.1949310  67.7559310  33.4759310  43.7009310  71.7319310
  32.7969310  44.3399310  71.9519310  33.0669310  42.8519310  71.8949310
  33.3359310  43.6739310  71.7809310  44.4359310  51.7059310  62.6959310
  44.0679310  52.2869310  63.3609310  45.3269310  52.0289310  62.5619310
  44.5029310  51.8219310  62.7639310  31.6239310  36.6099310  70.3139310
  32.4859310  36.5709310  70.7279310  31.8099310  36.7599310  69.3869310
  31.7579310  36.6239310  70.2479310  42.5409310  44.1429310  67.6809310
  42.2729310  44.7859310  68.3379310  41.7419310  43.9609310  67.1849310
  42.4039310  44.2019310  67.7009310  32.4389310  40.6819310  62.3439310
  32.8389310  41.2669310  62.9879310  31.9749310  41.2669310  61.7449310
  32.4309310  40.8319310  62.3499310  42.5179310  42.4769310  70.2429310
  42.3549310  42.7859310  69.3519310  41.6569310  42.2129310  70.5659310
  42.3869310  42.4829310  70.1709310  42.7399310  36.6979310  74.3809310
  42.7369310  36.4079310  73.4689310  42.0679310  37.3789310  74.4179310
  42.6529310  36.7479310  74.2689310  42.4499310  46.1399310  72.7789310
  41.6319310  45.9839310  72.3079310  42.4979310  47.0919310  72.8679310
  42.3519310  46.2419310  72.7299310  46.7999310  40.8359310  74.0099310
  47.5129310  40.2039310  74.1049310  47.2399310  41.6729310  73.8639310
  46.9469310  40.8619310  74.0029310  32.8289310  42.6179310  67.5319310
  32.0499310  43.1239310  67.7629310  32.5669310  41.7049310  67.6549310
  32.6959310  42.5659310  67.5769310  48.2729310  52.1129310  69.5789310
  48.5549310  52.0169310  70.4889310  47.4919310  52.6639310  69.6279310
  48.2089310  52.1709310  69.7019310  35.9249310  46.7749310  64.6379310
  35.8379310  47.5549310  65.1869310  35.9969310  46.0509310  65.2609310
  35.9229310  46.7819310  64.7879310  31.5559310  37.8589310  59.8429310
  31.4989310  37.6049310  58.9219310  31.0079310  38.6409310  59.9109310
  31.4789310  37.9269310  59.7339310  36.0269310  41.9159310  71.8219310
  35.9359310  41.7959310  70.8769310  35.3029310  42.4939310  72.0599310
  35.9229310  41.9749310  71.7309310  37.1089310  35.4319310  63.2739310
  36.7039310  35.1009310  64.0759310  37.2159310  34.6579310  62.7219310
  37.0709310  35.2909310  63.3059310  48.1939310  50.8909310  63.0139310
  48.2639310  50.2619310  63.7309310  48.2599310  50.3589310  62.2209310
  48.2109310  50.7429310  63.0039310  37.6519310  41.4779310  61.1599310
  38.0249310  41.4129310  60.2809310  36.7469310  41.1819310  61.0589310
  37.5839310  41.4309310  61.0349310  37.3509310  48.6349310  59.5939310
  36.6189310  48.1459310  59.2179310  38.0109310  48.6479310  58.9019310
  37.3409310  48.5739310  59.4579310  39.7969310  38.3749310  63.5449310
  38.9449310  38.2369310  63.1329310  39.8469310  39.3219310  63.6809310
  39.6949310  38.4789310  63.5099310  32.2969310  51.9799310  70.1649310
  32.0039310  51.7069310  69.2949310  31.9889310  52.8819310  70.2489310
  32.2199310  52.0599310  70.0639310  34.6689310  39.0429310  72.7359310
  35.4599310  39.0759310  72.1989310  34.3089310  39.9289310  72.6879310
  34.7239310  39.1599310  72.6609310  45.8249310  37.2959310  74.2049310
  45.8859310  36.9489310  73.3149310  44.8849310  37.3439310  74.3789310
  45.7119310  37.2579310  74.1129310  36.2119310  49.3439310  69.5629310
  35.6419310  50.0309310  69.9099310  35.7599310  48.5279310  69.7769310
  36.0809310  49.3279310  69.6349310  42.8039310  50.9249310  60.6539310
  42.1189310  50.8529310  61.3189310  43.6019310  51.1029310  61.1509310
  42.8179310  50.9379310  60.8029310  40.5149310  36.5489310  61.6359310
  40.2899310  37.3339310  62.1349310  41.4139310  36.7009310  61.3439310
  40.6019310  36.6689310  61.6629310  45.9419310  36.2689310  66.5059310
  46.8129310  35.8759310  66.5629310  45.8429310  36.4999310  65.5829310
  46.0409310  36.2479310  66.3949310  42.8499310  36.5359310  71.6399310
  42.5899310  35.7599310  71.1429310  43.8059310  36.5409310  71.5919310
  42.9389310  36.4369310  71.5699310  45.9669310  40.1339310  61.7539310
  45.7459310  39.8839310  62.6519310  46.7829310  39.6679310  61.5709310
  46.0429310  40.0419310  61.8459310  39.7699310  38.6839310  66.9209310
  38.9189310  38.2529310  66.8339310  39.8689310  38.8309310  67.8619310
  39.6729310  38.6479310  67.0299310  37.1919310  48.2179310  62.7569310
  36.5559310  47.7629310  63.3079310  36.7039310  48.9519310  62.3839310
  37.0489310  48.2539310  62.7799310  43.0699310  49.8889310  70.9619310
  42.8669310  49.5789310  71.8439310  43.5839310  49.1809310  70.5719310
  43.1099310  49.7579310  71.0249310  48.6579310  40.1579310  59.5899310
  47.8349310  39.6709310  59.5419310  48.4059310  41.0219310  59.9179310
  48.5209310  40.2059310  59.6259310  45.7149310  47.4909310  73.6089310
  45.0749310  46.9579310  74.0809310  45.6769310  47.1679310  72.7079310
  45.6279310  47.3809310  73.5539310  39.4819310  49.8589310  73.7439310
  39.0949310  49.4939310  72.9479310  38.8339310  50.4879310  74.0589310
  39.3489310  49.8919310  73.6829310  31.8419310  49.2129310  71.1129310
  31.4599310  50.0559310  71.3569310  32.6659310  49.4389310  70.6819310
  31.8979310  49.3499310  71.0889310  33.7449310  38.8389310  66.5349310
  33.6509310  38.3719310  65.7049310  34.5679310  38.5159310  66.8999310
  33.8379310  38.7379310  66.4759310  48.3819310  45.3279310  71.4259310
  47.4909310  45.5439310  71.7039310  48.6589310  46.0809310  70.9039310
  48.3029310  45.4519310  71.3949310  47.4499310  47.3499310  61.8579310
  47.4719310  47.4659310  62.8079310  47.6229310  48.2229310  61.5069310
  47.4749310  47.4769310  61.9349310  46.8249310  53.2899310  62.1649310
  46.5609310  53.2549310  61.2459310  47.4469310  52.5689310  62.2639310
  46.8709310  53.1929310  62.0599310  43.9989310  53.2859310  59.6759310
  43.4829310  52.6009310  60.1019310  43.5159310  54.0929310  59.8499310
  43.8709310  53.3009310  59.7529310  35.9079310  38.0969310  67.7909310
  36.3599310  37.5179310  68.4049310  36.4709310  38.1119310  67.0179310
  36.0379310  38.0249310  67.7709310  32.4899310  41.1969310  72.0599310
  31.9239310  41.5579310  71.3779310  31.9939310  41.3129310  72.8699310
  32.3539310  41.2579310  72.0759310  43.7359310  54.8289310  67.9769310
  44.5109310  54.6729310  67.4379310  43.7049310  55.7799310  68.0829310
  43.8309310  54.9309310  67.9219310  40.3059310  51.2409310  62.2059310
  40.0679310  50.4279310  62.6499310  39.5009310  51.5189310  61.7689310
  40.1729310  51.1729310  62.2069310  45.4989310  50.6609310  73.5129310
  45.7689310  49.7569310  73.6729310  44.5469310  50.6479310  73.6139310
  45.4119310  50.5439310  73.5469310  45.8089310  46.3669310  71.2099310
  45.1989310  45.6309310  71.2659310  45.3769310  46.9909310  70.6269310
  45.6759310  46.3519310  71.1429310  34.9069310  46.9549310  69.6349310
  34.4459310  47.2989310  68.8699310  34.9879310  46.0169310  69.4629310
  34.8579310  46.8789310  69.5149310  33.1029310  44.5959310  61.8199310
  34.0589310  44.6279310  61.8469310  32.8319310  45.5129310  61.8579310
  33.1909310  44.7169310  61.8279310  43.7709310  42.1469310  62.1749310
  44.3909310  42.5909310  61.5959310  42.9609310  42.6509310  62.0899310
  43.7469310  42.2689310  62.0899310  36.0629310  50.2829310  61.4069310
  35.3629310  50.6809310  60.8899310  36.4949310  49.6799310  60.8009310
  36.0289310  50.2569310  61.2629310  44.6639310  48.2259310  69.2289310
  44.4909310  48.1489310  68.2909310  45.4469310  48.7729310  69.2839310
  44.7419310  48.2859310  69.1159310  39.4819310  44.6099310  63.5479310
  39.9959310  44.0099310  63.0079310  39.2079310  45.2999310  62.9439310
  39.5119310  44.6209310  63.4019310  46.5099310  53.1769310  72.8389310
  46.9189310  53.3489310  73.6869310  46.2409310  52.2599310  72.8839310
  46.5279310  53.0819310  72.9529310  45.5239310  37.8389310  71.1069310
  45.2369310  38.6649310  71.4979310  45.3009310  37.9229310  70.1799310
  45.4579310  37.9559310  71.0389310  49.1769310  52.4689310  59.8369310
  49.7639310  52.2919310  59.1019310  48.5859310  53.1489310  59.5129310
  49.1759310  52.5329310  59.7009310  31.9689310  51.9649310  57.5939310
  32.5259310  51.2059310  57.7659310  32.5369310  52.7189310  57.7499310
  32.1129310  51.9639310  57.6359310  49.5389310  39.1749310  63.5929310
  50.1209310  39.6599310  63.0069310  48.9729310  39.8449310  63.9759310
  49.5409310  39.3229310  63.5669310  37.2579310  37.9939310  65.4589310
  37.0799310  38.5839310  64.7269310  37.7429310  37.2669310  65.0689310
  37.2969310  37.9769310  65.3159310  30.8629310  44.5839310  64.0359310
  31.4599310  44.8399310  63.3319310  31.1659310  45.0789310  64.7979310
  30.9779310  44.6799310  64.0429310  33.5439310  48.0909310  67.8409310
  33.8029310  48.7839310  67.2329310  32.6719310  48.3499310  68.1399310
  33.4659310  48.2129310  67.8009310  47.2319310  45.6809310  64.8219310
  48.0849310  45.3399310  64.5519310  47.2539310  45.6519310  65.7779310
  47.3439310  45.6329310  64.9089310  40.1619310  42.5919310  72.7269310
  39.4079310  42.2619310  72.2379310  39.9609310  42.3939310  73.6409310
  40.0399310  42.5239310  72.7809310  49.3079310  35.7069310  64.3299310
  48.7119310  35.3569310  64.9919310  50.0259310  35.0749310  64.2949310
  49.3239310  35.5819310  64.4099310  45.3779310  46.3519310  60.0369310
  45.7739310  46.6929310  60.8389310  45.8689310  46.7709310  59.3299310
  45.4909310  46.4489310  60.0489310  45.1069310  40.4379310  71.9989310
  45.7999310  40.6319310  72.6309310  44.4709310  41.1439310  72.1169310
  45.1139310  40.5529310  72.0949310  45.5719310  52.7079310  69.4739310
  45.0989310  53.5409310  69.4669310  45.0409310  52.1269310  68.9299310
  45.4429310  52.7399310  69.4039310  46.5799310  50.0649310  38.3979310
  45.7179310  50.3929310  38.1419310  46.4839310  49.1129310  38.3969310
  46.4569310  49.9849310  38.3649310  48.7959310  41.8599310  45.4249310
  48.0169310  41.9699310  45.9699310  49.1399310  42.7459310  45.3159310
  48.7399310  41.9869310  45.4809310  43.5039310  52.8569310  46.4639310
  44.0899310  53.5939310  46.2889310  42.7219310  53.0429310  45.9449310
  43.4789310  52.9749310  46.3749310  48.5289310  47.6679310  51.0119310
  47.8149310  48.2729310  50.8129310  49.2449310  48.2309310  51.3089310
  48.5299310  47.8169310  51.0249310  33.1609310  35.4399310  55.4289310
  32.3279310  35.0129310  55.6299310  33.1279310  36.2669310  55.9089310
  33.0499310  35.4909310  55.5159310  48.1739310  49.6419310  41.5029310
  48.2949310  50.5169310  41.1349310  48.3829310  49.0479310  40.7819310
  48.2159310  49.6779310  41.3629310  52.3359310  42.3069310  45.7599310
  52.3499310  41.9939310  46.6649310  52.2869310  43.2599310  45.8369310
  52.3319310  42.3889310  45.8859310  46.6449310  49.8279310  51.4819310
  46.2939310  49.7249310  52.3669310  46.7929310  50.7699310  51.3919310
  46.6189310  49.9349310  51.5839310  48.7819310  51.5949310  53.3609310
  48.9799310  51.1999310  54.2109310  48.1109310  52.2499310  53.5519310
  48.7209310  51.6279310  53.4939310  48.0139310  43.6349310  55.9679310
  47.1909310  43.9749310  55.6189310  47.8699310  43.5789310  56.9129310
  47.8909310  43.6709310  56.0439310  48.3799310  53.3799310  47.9339310
  48.2329310  52.4369310  48.0149310  49.0339310  53.5779310  48.6049310
  48.4449310  53.2839310  48.0299310  49.7129310  49.6579310  46.7199310
  48.8689310  50.0709310  46.9039310  49.5809310  48.7359310  46.9379310
  49.5879310  49.5929310  46.7709310  49.1719310  43.8719310  48.9569310
  48.7829310  43.3979310  49.6929310  48.6369310  44.6609310  48.8709310
  49.0539310  43.9119310  49.0399310  47.3579310  35.1099310  56.6709310
  46.8169310  34.5949310  57.2689310  46.8939310  35.9429310  56.5839310
  47.2299310  35.1509310  56.7369310  44.9519310  51.2519310  48.2459310
  44.4079310  51.8519310  47.7349310  44.5609310  50.3909310  48.0999310
  44.8329310  51.2189310  48.1619310  48.2729310  52.1129310  50.7189310
  48.5549310  52.0169310  51.6289310  47.4919310  52.6639310  50.7679310
  48.2089310  52.1709310  50.8419310  48.1939310  50.8909310  44.1539310
  48.2639310  50.2619310  44.8709310  48.2599310  50.3589310  43.3609310
  48.2109310  50.7429310  44.1439310  46.8249310  53.2899310  43.3049310
  46.5609310  53.2549310  42.3859310  47.4469310  52.5689310  43.4039310
  46.8709310  53.1929310  43.1999310  43.7359310  54.8289310  49.1169310
  44.5109310  54.6729310  48.5779310  43.7049310  55.7799310  49.2229310
  43.8309310  54.9309310  49.0619310  46.5099310  53.1769310  53.9789310
  46.9189310  53.3489310  54.8269310  46.2409310  52.2599310  54.0239310
  46.5279310  53.0819310  54.0929310  49.1769310  52.4689310  40.9769310
  49.7639310  52.2919310  40.2419310  48.5859310  53.1489310  40.6529310
  49.1759310  52.5329310  40.8409310  31.9689310  51.9649310  38.7339310
  32.5259310  51.2059310  38.9059310  32.5369310  52.7189310  38.8899310
  32.1129310  51.9639310  38.7759310  49.0169310  50.8239310  55.9719310
  48.2449310  50.8549310  56.5359310  49.6339310  51.4339310  56.3779310
  48.9969310  50.9059310  56.0969310  45.5719310  52.7079310  50.6139310
  45.0989310  53.5409310  50.6069310  45.0409310  52.1269310  50.0699310
  45.4429310  52.7399310  50.5439310  35.0829310  51.5649310  32.8579310
  34.1289310  51.4969310  32.8259310  35.2719310  51.8719310  33.7439310
  34.9849310  51.5959310  32.9669310  39.8479310  49.0089310  26.0209310
  39.6739310  49.1699310  26.9489310  39.0829310  48.5229310  25.7149310
  39.7279310  48.9669310  26.1009310  35.5999310  35.6649310  32.1039310
  35.0399310  36.1129310  32.7379310  35.4539310  34.7339310  32.2709310
  35.5099310  35.6029310  32.2059310  36.4189310  43.9059310  21.3519310
  36.2649310  44.3629310  22.1789310  37.1309310  43.2959310  21.5439310
  36.4899310  43.8859310  21.4819310  46.5799310  50.0649310  19.5379310
  45.7179310  50.3929310  19.2819310  46.4839310  49.1129310  19.5369310
  46.4569310  49.9849310  19.5049310  33.3059310  50.1619310  26.3149310
  33.3439310  51.0549310  25.9709310  32.5069310  50.1409310  26.8409310
  33.2089310  50.2739310  26.3379310  38.0169310  51.9519310  23.0039310
  37.2179310  51.4249310  23.0139310  38.3609310  51.8489310  22.1169310
  37.9589310  51.8709310  22.8919310  41.9249310  46.9369310  25.4709310
  41.4989310  46.3299310  24.8669310  41.2619310  47.6039310  25.6489310
  41.7859310  46.9449310  25.4169310  47.6769310  37.5689310  24.7239310
  47.7449310  36.6219310  24.5999310  48.5459310  37.8339310  25.0249310
  47.7969310  37.4819310  24.7469310  39.8919310  37.9879310  20.7129310
  39.6259310  37.5249310  21.5079310  39.9079310  37.3109310  20.0369310
  39.8599310  37.8419310  20.7289310  43.0029310  46.1279310  21.0159310
  43.7729310  46.1489310  21.5829310  43.3219310  45.7609310  20.1919310
  43.1419310  46.0839310  20.9829310  48.7389310  45.7649310  22.7459310
  48.3729310  46.4059310  23.3559310  47.9739310  45.3429310  22.3539310
  48.5939310  45.7929310  22.7739310  46.7209310  47.3649310  19.7629310
  46.7629310  47.2309310  18.8159310  47.6069310  47.6319310  20.0059310
  46.8399310  47.3819310  19.6729310  32.1239310  45.8429310  35.1469310
  31.2029310  45.6229310  35.0069310  32.2039310  45.9499310  36.0939310
  32.0159310  45.8279310  35.2499310  43.7139310  49.5319310  26.3519310
  43.8899310  50.3819310  25.9489310  42.9549310  49.1949310  25.8779310
  43.6399310  49.5979310  26.2399310  43.5039310  52.8569310  27.6039310
  44.0899310  53.5939310  27.4289310  42.7219310  53.0429310  27.0849310
  43.4789310  52.9749310  27.5149310  39.9129310  41.4979310  24.6729310
  39.0879310  41.4799310  24.1879310  39.6619310  41.3119310  25.5779310
  39.7749310  41.4719310  24.7269310  37.0269310  51.1629310  29.2899310
  36.7659310  50.7879310  30.1309310  37.7579310  50.6179310  29.0009310
  37.0869310  51.0449310  29.3599310  35.2649310  49.3559310  28.0049310
  34.5409310  49.6589310  27.4569310  35.8589310  50.1059310  28.0529310
  35.2489310  49.4909310  27.9409310  34.7379310  43.1199310  19.3429310
  34.1349310  43.8569310  19.2469310  35.3669310  43.4099310  20.0039310
  34.7409310  43.2509310  19.4149310  39.1649310  51.5819310  20.6359310
  39.6239310  50.7599310  20.8079310  39.8629310  52.2219310  20.4969310
  39.3129310  51.5589310  20.6399310  37.4789310  51.5669310  37.0869310
  38.0529310  51.4799310  37.8479310  37.4369310  52.5089310  36.9249310
  37.5469310  51.6759310  37.1629310  37.8339310  45.4209310  36.9879310
  37.6769310  44.4769310  36.9519310  37.7449310  45.7129310  36.0809310
  37.8019310  45.3369310  36.8669310  42.0409310  48.7289310  21.0899310
  42.3449310  47.8359310  21.2459310  42.5679310  49.2689310  21.6789310
  42.1469310  48.6839310  21.1849310  44.6639310  39.2169310  21.6659310
  44.7679310  39.5609310  22.5529310  44.5339310  39.9929310  21.1209310
  44.6609310  39.3599310  21.7099310  36.8929310  36.3909310  19.6529310
  37.2349310  36.3999310  20.5469310  36.4079310  37.2129310  19.5749310
  36.8749310  36.4979310  19.7569310  32.0619310  36.3069310  29.5569310
  32.8959310  36.7609310  29.4329310  31.4739310  36.7059310  28.9169310
  32.0939310  36.4159310  29.4599310  48.1739310  49.6419310  22.6429310
  48.2949310  50.5169310  22.2749310  48.3829310  49.0479310  21.9219310
  48.2159310  49.6779310  22.5029310  46.5919310  35.0409310  21.5209310
  46.7199310  35.9559310  21.2689310  45.6429310  34.9459310  21.6059310
  46.4869310  35.1459310  21.4999310  32.5709310  53.1239310  23.8259310
  31.7899310  52.9929310  23.2879310  32.5409310  54.0489310  24.0699310
  32.4669310  53.2259310  23.7879310  38.9239310  49.3899310  28.5159310
  38.4439310  48.5819310  28.6929310  39.6539310  49.3759310  29.1349310
  38.9559310  49.2849310  28.6179310  41.7289310  40.2429310  20.7829310
  41.1029310  39.5189310  20.8069310  41.9469310  40.4019310  21.7009310
  41.6769310  40.1709310  20.9029310  34.3019310  51.6489310  22.3599310
  33.7199310  52.1469310  22.9329310  34.5309310  52.2599310  21.6599310
  34.2569310  51.7909310  22.3439310  47.9009310  43.2079310  20.7839310
  47.4439310  42.9669310  21.5899310  48.8269310  43.0679310  20.9829310
  47.9609310  43.1589310  20.9129310  48.7819310  51.5949310  34.5009310
  48.9799310  51.1999310  35.3509310  48.1109310  52.2499310  34.6919310
  48.7209310  51.6279310  34.6339310  41.9269310  40.3609310  23.4469310
  41.1039310  40.6439310  23.8429310  42.6049310  40.7469310  24.0019310
  41.9089310  40.4459310  23.5689310  34.9389310  43.9519310  31.5399310
  34.5619310  43.8249310  32.4099310  34.3759310  43.4409310  30.9579310
  34.8189310  43.8709310  31.5769310  31.9289310  47.0279310  27.8159310
  32.3229310  46.9579310  26.9459310  32.5409310  46.5729310  28.3929310
  32.0579310  46.9609310  27.7779310  46.6499310  42.7079310  23.1879310
  46.6069310  43.3269310  23.9179310  46.2839310  41.8969310  23.5399310
  46.5979310  42.6839310  23.3269310  41.3999310  43.5719310  23.6669310
  40.7279310  42.8909310  23.6969310  41.4789310  43.7889310  22.7379310
  41.3239310  43.5129310  23.5519310  42.5859310  52.5509310  32.7849310
  42.0369310  52.4819310  32.0049310  42.9499310  51.6739310  32.9009310
  42.5629310  52.4299310  32.6999310  31.0329310  42.8199310  23.4329310
  31.6979310  43.4199310  23.7709310  30.2009310  43.2539310  23.6219310
  31.0119310  42.9519310  23.5009310  33.3659310  47.2649310  25.6349310
  34.0449310  46.9849310  26.2489310  33.4639310  48.2149310  25.5859310
  33.4649310  47.3509310  25.7079310  38.7799310  46.0009310  20.7219310
  38.3969310  45.6919310  19.9009310  39.0189310  46.9119310  20.5469310
  38.7619310  46.0779310  20.5949310  33.0359310  37.4559310  26.3999310
  32.7979310  36.6369310  25.9659310  32.2749310  38.0239310  26.2729310
  32.9079310  37.4239310  26.3279310  37.6069310  36.2709310  22.4039310
  37.8519310  35.3959310  22.7049310  37.3919310  36.7479310  23.2049310
  37.6109310  36.2199310  22.5449310  41.2929310  49.6759310  30.0239310
  41.2289310  49.1559310  30.8259310  41.8379310  50.4249310  30.2669310
  41.3539310  49.7049310  30.1579310  46.7919310  48.5719310  26.6429310
  45.8769310  48.5819310  26.3599310  46.9139310  47.7039310  27.0279310
  46.6899310  48.4619310  26.6559310  34.4449310  40.5359310  20.4379310
  33.5199310  40.2929310  20.4759310  34.4409310  41.4559310  20.1729310
  34.3269310  40.6229310  20.4089310  36.4139310  44.8889310  23.7269310
  37.2369310  45.3749310  23.6889310  36.4649310  44.3939310  24.5439310
  36.5259310  44.8879310  23.8259310  33.1049310  52.7639310  27.8029310
  32.5629310  53.1869310  28.4699310  34.0039310  52.9609310  28.0649310
  33.1499310  52.8439310  27.9219310  38.7089310  46.5259310  23.7289310
  38.1859310  47.2289310  24.1149310  38.7209310  46.7219310  22.7929310
  38.6439310  46.6409310  23.6589310  45.7519310  41.3929310  19.8929310
  46.2299310  41.0399310  19.1439310  46.2539310  42.1649310  20.1559310
  45.8769310  41.4469310  19.8309310  34.6459310  46.8289310  34.7229310
  34.6079310  47.1459310  33.8209310  33.7739310  46.4699310  34.8879310
  34.5289310  46.8229310  34.6289310  38.5539310  48.5689310  33.2979310
  37.7709310  48.9749310  32.9289310  38.2659310  47.6979310  33.5709310
  38.4169310  48.5089310  33.2859310  32.2919310  50.5809310  30.0409310
  32.9469310  50.9419310  29.4439310  31.6139310  50.2259310  29.4659310
  32.2889310  50.5819310  29.8909310  47.6039310  32.4729310  29.2919310
  47.7499310  32.8779310  30.1469310  46.6589310  32.5409310  29.1529310
  47.5019310  32.5329310  29.3839310  33.1959310  45.4599310  37.7459310
  33.9989310  45.9699310  37.6359310  32.7459310  45.8779310  38.4799310
  33.2409310  45.5789310  37.8259310  38.3169310  41.3539310  20.7469310
  37.8359310  40.5369310  20.6159310  38.7509310  41.5129310  19.9089310
  38.3109310  41.2699310  20.6229310  32.2809310  46.3909310  21.2049310
  33.0479310  46.0679310  21.6799310  31.5389310  46.1519310  21.7599310
  32.2839310  46.3189310  21.3369310  48.3799310  53.3799310  29.0739310
  48.2329310  52.4369310  29.1549310  49.0339310  53.5779310  29.7449310
  48.4449310  53.2839310  29.1699310  49.7129310  49.6579310  27.8599310
  48.8689310  50.0709310  28.0439310  49.5809310  48.7359310  28.0779310
  49.5879310  49.5929310  27.9109310  45.5499310  44.4429310  25.1109310
  46.2239310  44.8549310  25.6509310  44.7399310  44.8889310  25.3569310
  45.5329310  44.5529310  25.2109310  33.7039310  44.9339310  28.6139310
  34.6609310  44.9179310  28.5949310  33.4589310  44.1199310  29.0539310
  33.7949310  44.8279310  28.6679310  42.5699310  37.1649310  21.7189310
  41.8109310  37.4129310  21.1909310  43.1249310  37.9449310  21.7199310
  42.5439310  37.2969310  21.6519310  35.1049310  40.4579310  23.4359310
  35.0149310  40.1869310  22.5229310  34.2069310  40.6149310  23.7289310
  34.9779310  40.4439310  23.3569310  37.0509310  43.3739310  25.8359310
  37.2389310  42.6219310  25.2739310  37.9069310  43.7649310  26.0059310
  37.1839310  43.3279310  25.7859310  39.5009310  48.5809310  20.1189310
  40.3449310  48.5429310  20.5699310  39.7239310  48.7859310  19.2109310
  39.6379310  48.6019310  20.0609310  41.2539310  53.2399310  26.1859310
  41.0689310  52.4129310  25.7399310  40.9419310  53.9129310  25.5809310
  41.1899310  53.2199310  26.0509310  42.8419310  52.4749310  19.2759310
  42.9999310  53.3139310  18.8429310  43.1039310  52.6219310  20.1849310
  42.8959310  52.6009310  19.3369310  44.9519310  51.2519310  29.3859310
  44.4079310  51.8519310  28.8749310  44.5609310  50.3909310  29.2399310
  44.8329310  51.2189310  29.3019310  39.0439310  53.6199310  28.3589310
  39.0099310  52.9329310  29.0239310  39.5199310  53.2249310  27.6289310
  39.0999310  53.4819310  28.3509310  40.9229310  44.3479310  21.0469310
  41.6529310  44.9679310  21.0359310  40.1409310  44.8989310  21.0159310
  40.9159310  44.4979310  21.0409310  41.4459310  53.0759310  30.1239310
  42.2359310  53.6139310  30.0699310  40.8459310  53.4679310  29.4899310
  41.4699310  53.1949310  30.0359310  36.8339310  38.9549310  20.7409310
  35.9169310  38.7399310  20.9069310  37.3089310  38.5669310  21.4759310
  36.7769310  38.8779310  20.8559310  44.4359310  51.7059310  24.9759310
  44.0679310  52.2869310  25.6409310  45.3269310  52.0289310  24.8419310
  44.5029310  51.8219310  25.0439310  32.4389310  40.6819310  24.6239310
  32.8389310  41.2669310  25.2679310  31.9749310  41.2669310  24.0249310
  32.4309310  40.8319310  24.6299310  34.3989310  35.3609310  20.6689310
  34.3999310  36.1029310  21.2729310  34.9029310  35.6649310  19.9149310
  34.4639310  35.4949310  20.6499310  35.3149310  47.3969310  20.9529310
  35.4009310  47.3459310  20.0009310  34.7619310  48.1649310  21.1019310
  35.2549310  47.4889310  20.8499310  32.8289310  42.6179310  29.8119310
  32.0499310  43.1239310  30.0429310  32.5669310  41.7049310  29.9349310
  32.6959310  42.5659310  29.8569310  35.9249310  46.7749310  26.9179310
  35.8379310  47.5549310  27.4669310  35.9969310  46.0509310  27.5409310
  35.9229310  46.7819310  27.0679310  31.5559310  37.8589310  22.1229310
  31.4989310  37.6049310  21.2019310  31.0079310  38.6409310  22.1909310
  31.4789310  37.9269310  22.0139310  48.1939310  50.8909310  25.2939310
  48.2639310  50.2619310  26.0109310  48.2599310  50.3589310  24.5009310
  48.2109310  50.7429310  25.2839310  37.3509310  48.6349310  21.8739310
  36.6189310  48.1459310  21.4979310  38.0109310  48.6479310  21.1819310
  37.3409310  48.5739310  21.7379310  32.2969310  51.9799310  32.4449310
  32.0039310  51.7069310  31.5749310  31.9889310  52.8819310  32.5289310
  32.2199310  52.0599310  32.3439310  40.8419310  42.0459310  19.0639310
  40.8229310  42.6959310  19.7659310  41.1969310  41.2579310  19.4759310
  40.8849310  42.0289310  19.2059310  36.2119310  49.3439310  31.8429310
  35.6419310  50.0309310  32.1899310  35.7599310  48.5279310  32.0569310
  36.0809310  49.3279310  31.9149310  42.8039310  50.9249310  22.9339310
  42.1189310  50.8529310  23.5989310  43.6019310  51.1029310  23.4309310
  42.8179310  50.9379310  23.0829310  43.8129310  49.8969310  19.1809310
  43.4129310  50.7649310  19.2309310  43.3369310  49.3759310  19.8279310
  43.7009310  49.9419310  19.2699310  37.1919310  48.2179310  25.0369310
  36.5559310  47.7629310  25.5879310  36.7039310  48.9519310  24.6639310
  37.0489310  48.2539310  25.0599310  48.6579310  40.1579310  21.8699310
  47.8349310  39.6709310  21.8219310  48.4059310  41.0219310  22.1979310
  48.5209310  40.2059310  21.9059310  39.4819310  49.8589310  36.0239310
  39.0949310  49.4939310  35.2279310  38.8339310  50.4879310  36.3389310
  39.3489310  49.8919310  35.9629310  31.8419310  49.2129310  33.3929310
  31.4599310  50.0559310  33.6369310  32.6659310  49.4389310  32.9619310
  31.8979310  49.3499310  33.3689310  33.7449310  38.8389310  28.8149310
  33.6509310  38.3719310  27.9849310  34.5679310  38.5159310  29.1799310
  33.8379310  38.7379310  28.7559310  47.4499310  47.3499310  24.1379310
  47.4719310  47.4659310  25.0879310  47.6229310  48.2229310  23.7869310
  47.4749310  47.4769310  24.2149310  46.8249310  53.2899310  24.4449310
  46.5609310  53.2549310  23.5259310  47.4469310  52.5689310  24.5439310
  46.8709310  53.1929310  24.3399310  43.9989310  53.2859310  21.9559310
  43.4829310  52.6009310  22.3819310  43.5159310  54.0929310  22.1299310
  43.8709310  53.3009310  22.0329310  43.7359310  54.8289310  30.2569310
  44.5109310  54.6729310  29.7179310  43.7049310  55.7799310  30.3629310
  43.8309310  54.9309310  30.2019310  40.3059310  51.2409310  24.4859310
  40.0679310  50.4279310  24.9299310  39.5009310  51.5189310  24.0489310
  40.1729310  51.1729310  24.4869310  45.4989310  50.6609310  35.7929310
  45.7689310  49.7569310  35.9529310  44.5469310  50.6479310  35.8939310
  45.4119310  50.5439310  35.8269310  34.9069310  46.9549310  31.9149310
  34.4459310  47.2989310  31.1499310  34.9879310  46.0169310  31.7429310
  34.8579310  46.8789310  31.7949310  33.1029310  44.5959310  24.0999310
  34.0589310  44.6279310  24.1269310  32.8319310  45.5129310  24.1379310
  33.1909310  44.7169310  24.1079310  34.4619310  37.8859310  22.0709310
  34.7699310  37.9509310  22.9749310  33.5439310  37.6279310  22.1499310
  34.3839310  37.8609310  22.1969310  30.3909310  48.1989310  20.4159310
  31.0189310  47.6759310  20.9149310  30.8849310  48.5049310  19.6549310
  30.5349310  48.1709310  20.3829310  36.0629310  50.2829310  23.6869310
  35.3629310  50.6809310  23.1699310  36.4949310  49.6799310  23.0809310
  36.0289310  50.2569310  23.5429310  46.5099310  53.1769310  35.1189310
  46.9189310  53.3489310  35.9669310  46.2409310  52.2599310  35.1639310
  46.5279310  53.0819310  35.2329310  49.1769310  52.4689310  22.1169310
  49.7639310  52.2919310  21.3819310  48.5859310  53.1489310  21.7929310
  49.1759310  52.5329310  21.9809310  31.9689310  51.9649310  19.8739310
  32.5259310  51.2059310  20.0459310  32.5369310  52.7189310  20.0299310
  32.1129310  51.9639310  19.9159310  30.8629310  44.5839310  26.3159310
  31.4599310  44.8399310  25.6119310  31.1659310  45.0789310  27.0779310
  30.9779310  44.6799310  26.3229310  33.5439310  48.0909310  30.1209310
  33.8029310  48.7839310  29.5129310  32.6719310  48.3499310  30.4199310
  33.4659310  48.2129310  30.0809310  45.3779310  46.3519310  22.3169310
  45.7739310  46.6929310  23.1189310  45.8689310  46.7709310  21.6099310
  45.4909310  46.4489310  22.3289310  45.5719310  52.7079310  31.7539310
  45.0989310  53.5409310  31.7469310  45.0409310  52.1269310  31.2099310
  45.4429310  52.7399310  31.6839310  37.6839310  37.3789310  13.7379310
  37.9119310  37.3509310  14.6669310  37.0549310  36.6669310  13.6249310
  37.6329310  37.2839310  13.8429310  35.0829310  51.5649310  13.9979310
  34.1289310  51.4969310  13.9659310  35.2719310  51.8719310  14.8839310
  34.9849310  51.5959310  14.1069310  39.8479310  49.0089310   7.1609310
  39.6739310  49.1699310   8.0889310  39.0829310  48.5229310   6.8549310
  39.7279310  48.9669310   7.2409310  35.5999310  35.6649310  13.2439310
  35.0399310  36.1129310  13.8779310  35.4539310  34.7339310  13.4109310
  35.5099310  35.6029310  13.3459310  36.4189310  43.9059310   2.4919310
  36.2649310  44.3629310   3.3189310  37.1309310  43.2959310   2.6839310
  36.4899310  43.8859310   2.6219310  39.8139310  39.1149310  13.0969310
  39.2109310  38.4739310  13.4719310  40.6029310  39.0459310  13.6349310
  39.8379310  39.0249310  13.2139310  40.3519310  35.5519310  19.3749310
  41.2439310  35.3229310  19.1109310  39.8299310  35.4309310  18.5819310
  40.3999310  35.5079310  19.2399310  33.3059310  50.1619310   7.4549310
  33.3439310  51.0549310   7.1109310  32.5069310  50.1409310   7.9809310
  33.2089310  50.2739310   7.4779310  38.0169310  51.9519310   4.1439310
  37.2179310  51.4249310   4.1539310  38.3609310  51.8489310   3.2569310
  37.9589310  51.8709310   4.0319310  42.2369310  38.9409310  14.3649310
  42.4149310  38.0589310  14.6909310  42.5559310  39.5209310  15.0569310
  42.3009310  38.9019310  14.4959310  41.9249310  46.9369310   6.6109310
  41.4989310  46.3299310   6.0069310  41.2619310  47.6039310   6.7889310
  41.7859310  46.9449310   6.5569310  47.6769310  37.5689310   5.8639310
  47.7449310  36.6219310   5.7399310  48.5459310  37.8339310   6.1649310
  47.7969310  37.4819310   5.8869310  48.7959310  41.8599310   7.7049310
  48.0169310  41.9699310   8.2499310  49.1399310  42.7459310   7.5959310
  48.7399310  41.9869310   7.7609310  40.1269310  45.1759310  15.1369310
  39.9989310  44.3109310  15.5259310  40.5699310  45.0009310  14.3059310
  40.1669310  45.0429310  15.0799310  48.7389310  45.7649310   3.8859310
  48.3729310  46.4059310   4.4959310  47.9739310  45.3429310   3.4939310
  48.5939310  45.7929310   3.9139310  31.2509310  39.5059310  13.6939310
  31.5279310  40.0749310  14.4119310  30.6489310  38.8829310  14.1009310
  31.2099310  39.4989310  13.8379310  32.1239310  45.8429310  16.2869310
  31.2029310  45.6229310  16.1469310  32.2039310  45.9499310  17.2339310
  32.0159310  45.8279310  16.3899310  47.0639310  37.7949310   2.9909310
  47.1959310  37.6509310   3.9279310  46.1959310  38.1939310   2.9309310
  46.9699310  37.8269310   3.1039310  43.7139310  49.5319310   7.4919310
  43.8899310  50.3819310   7.0889310  42.9549310  49.1949310   7.0179310
  43.6399310  49.5979310   7.3799310  43.5039310  52.8569310   8.7439310
  44.0899310  53.5939310   8.5689310  42.7219310  53.0429310   8.2249310
  43.4789310  52.9749310   8.6549310  35.8259310  40.1119310   7.2639310
  35.4189310  40.1109310   6.3969310  35.3399310  40.7749310   7.7549310
  35.7119310  40.1969310   7.2159310  33.9449310  36.5079310  15.2819310
  34.1519310  37.4059310  15.5389310  33.5889310  36.1069310  16.0749310
  33.9259310  36.5709310  15.4159310  35.2529310  37.2989310   5.9819310
  34.4949310  37.2859310   6.5669310  35.7849310  36.5549310   6.2629310
  35.2239310  37.2019310   6.0929310  42.2929310  40.9969310  16.2809310
  42.8789310  41.3099310  16.9699310  41.5669310  41.6219310  16.2809310
  42.2749310  41.1169310  16.3689310  39.9129310  41.4979310   5.8129310
  39.0879310  41.4799310   5.3279310  39.6619310  41.3119310   6.7179310
  39.7749310  41.4719310   5.8669310  37.0269310  51.1629310  10.4299310
  36.7659310  50.7879310  11.2709310  37.7579310  50.6179310  10.1409310
  37.0869310  51.0449310  10.4999310  35.2649310  49.3559310   9.1449310
  34.5409310  49.6589310   8.5969310  35.8589310  50.1059310   9.1929310
  35.2489310  49.4909310   9.0809310  31.8139310  39.5099310  19.3349310
  31.6159310  39.5909310  18.4029310  31.0199310  39.8129310  19.7759310
  31.6869310  39.5589310  19.2719310  39.1649310  51.5819310   1.7759310
  39.6239310  50.7599310   1.9479310  39.8629310  52.2219310   1.6369310
  39.3129310  51.5589310   1.7799310  37.8879310  42.0729310  10.7579310
  38.7689310  42.3649310  10.9899310  37.9739310  41.7389310   9.8649310
  38.0119310  42.0679310  10.6729310  31.7819310  48.5359310  18.0919310
  31.0199310  49.1039310  17.9749310  31.9869310  48.2259310  17.2099310
  31.7099310  48.5689310  17.9639310  33.8529310  49.8309310  19.4289310
  34.3359310  50.3919310  18.8219310  33.4099310  49.1949310  18.8679310
  33.8579310  49.8219310  19.2799310  37.4789310  51.5669310  18.2269310
  38.0529310  51.4799310  18.9879310  37.4369310  52.5089310  18.0649310
  37.5469310  51.6759310  18.3029310  42.1849310  37.8919310   8.9419310
  41.2329310  37.8289310   9.0129310  42.5129310  37.1639310   9.4699310
  42.1049310  37.7909310   9.0189310  47.3139310  45.8999310  11.0639310
  47.7539310  46.4069310  11.7469310  46.6419310  45.4029310  11.5299310
  47.2849310  45.9009310  11.2109310  48.5289310  47.6679310  13.2919310
  47.8149310  48.2729310  13.0929310  49.2449310  48.2309310  13.5889310
  48.5299310  47.8169310  13.3049310  37.8339310  45.4209310  18.1279310
  37.6769310  44.4769310  18.0919310  37.7449310  45.7129310  17.2209310
  37.8019310  45.3369310  18.0069310  42.0409310  48.7289310   2.2299310
  42.3449310  47.8359310   2.3859310  42.5679310  49.2689310   2.8189310
  42.1469310  48.6839310   2.3249310  44.6639310  39.2169310   2.8059310
  44.7679310  39.5609310   3.6929310  44.5339310  39.9929310   2.2609310
  44.6609310  39.3599310   2.8499310  47.3059310  40.0649310  10.1329310
  48.2179310  40.0759310  10.4259310  47.3059310  39.4799310   9.3749310
  47.4229310  39.9909310  10.0739310  45.1509310  44.4019310  11.9839310
  44.2759310  44.1449310  11.6939310  45.5029310  43.6189310  12.4079310
  45.0839310  44.2689310  12.0009310  34.8599310  51.3179310  17.1419310
  34.6079310  52.2219310  17.3329310  35.7649310  51.2529310  17.4449310
  34.9439310  51.4259310  17.2049310  32.0619310  36.3069310  10.6969310
  32.8959310  36.7609310  10.5729310  31.4739310  36.7059310  10.0569310
  32.0939310  36.4159310  10.5999310  33.1609310  35.4399310  17.7089310
  32.3279310  35.0129310  17.9099310  33.1279310  36.2669310  18.1889310
  33.0499310  35.4909310  17.7959310  39.4959310  40.9019310   8.4469310
  39.5819310  40.1179310   8.9899310  39.9359310  41.5889310   8.9469310
  39.5629310  40.8899310   8.5799310  48.1739310  49.6419310   3.7829310
  48.2949310  50.5169310   3.4149310  48.3829310  49.0479310   3.0619310
  48.2159310  49.6779310   3.6429310  46.5919310  35.0409310   2.6609310
  46.7199310  35.9559310   2.4089310  45.6429310  34.9459310   2.7459310
  46.4869310  35.1459310   2.6399310  32.5709310  53.1239310   4.9659310
  31.7899310  52.9929310   4.4279310  32.5409310  54.0489310   5.2099310
  32.4669310  53.2259310   4.9279310  42.6219310  48.9259310  16.9169310
  43.2039310  48.7619310  17.6579310  42.0289310  49.6119310  17.2249310
  42.6199310  48.9929310  17.0509310  38.9239310  49.3899310   9.6559310
  38.4439310  48.5819310   9.8329310  39.6539310  49.3759310  10.2749310
  38.9559310  49.2849310   9.7579310  52.3359310  42.3069310   8.0399310
  52.3499310  41.9939310   8.9449310  52.2869310  43.2599310   8.1169310
  52.3319310  42.3889310   8.1659310  41.7289310  40.2429310   1.9229310
  41.1029310  39.5189310   1.9469310  41.9469310  40.4019310   2.8409310
  41.6769310  40.1709310   2.0429310  38.4669310  41.8909310  14.0429310
  37.6219310  41.5709310  14.3599310  38.9399310  41.0999310  13.7839310
  38.4189310  41.7489310  14.0509310  35.3939310  47.0769310  18.3769310
  36.2049310  46.5889310  18.2349310  35.1249310  47.3539310  17.5009310
  35.4629310  47.0499310  18.2459310  34.3019310  51.6489310   3.4999310
  33.7199310  52.1469310   4.0729310  34.5309310  52.2599310   2.7999310
  34.2569310  51.7909310   3.4839310  48.1949310  37.7579310  15.2179310
  47.3289310  37.5939310  14.8469310  48.7769310  37.1659310  14.7399310
  48.1589310  37.6609310  15.1089310  47.9009310  43.2079310   1.9239310
  47.4439310  42.9669310   2.7299310  48.8269310  43.0679310   2.1229310
  47.9609310  43.1589310   2.0529310  37.6559310  46.1169310  15.4049310
  38.5359310  45.7439310  15.3529310  37.1179310  45.5359310  14.8679310
  37.6999310  45.9949310  15.3299310  46.6449310  49.8279310  13.7619310
  46.2939310  49.7249310  14.6469310  46.7929310  50.7699310  13.6719310
  46.6189310  49.9349310  13.8639310  46.0259310  38.9249310   7.5119310
  46.7219310  38.5389310   6.9789310  45.4159310  38.2029310   7.6669310
  46.0369310  38.7829310   7.4629310  44.0999310  44.3739310  15.0539310
  43.5429310  43.9799310  14.3819310  43.5239310  44.9839310  15.5139310
  43.9549310  44.4019310  15.0269310  48.0139310  43.6349310  18.2479310
  47.1909310  43.9749310  17.8989310  47.8699310  43.5789310  19.1929310
  47.8909310  43.6709310  18.3239310  41.9269310  40.3609310   4.5869310
  41.1039310  40.6439310   4.9829310  42.6049310  40.7469310   5.1419310
  41.9089310  40.4459310   4.7089310  34.9389310  43.9519310  12.6799310
  34.5619310  43.8249310  13.5499310  34.3759310  43.4409310  12.0979310
  34.8189310  43.8709310  12.7169310  43.9459310  45.4619310   8.1349310
  44.4909310  45.9629310   8.7419310  43.2519310  46.0689310   7.8779310
  43.9269310  45.6029310   8.1799310  31.9289310  47.0279310   8.9559310
  32.3229310  46.9579310   8.0859310  32.5409310  46.5729310   9.5329310
  32.0579310  46.9609310   8.9179310  46.6499310  42.7079310   4.3279310
  46.6069310  43.3269310   5.0579310  46.2839310  41.8969310   4.6799310
  46.5979310  42.6839310   4.4669310  41.3999310  43.5719310   4.8069310
  40.7279310  42.8909310   4.8369310  41.4789310  43.7889310   3.8779310
  41.3239310  43.5129310   4.6919310  35.0869310  38.4249310  18.7699310
  34.9339310  38.7049310  17.8679310  34.8499310  39.1849310  19.3009310
  35.0369310  38.5579310  18.7229310  42.5859310  52.5509310  13.9249310
  42.0369310  52.4819310  13.1449310  42.9499310  51.6739310  14.0409310
  42.5629310  52.4299310  13.8399310  37.0199310  42.5459310  17.8759310
  36.9049310  42.2619310  16.9689310  36.1289310  42.6489310  18.2089310
  36.8909310  42.5229310  17.8019310  36.0649310  40.8729310  12.7219310
  35.4749310  40.1339310  12.5699310  36.6769310  40.8449310  11.9869310
  36.0679310  40.7749310  12.6079310  37.4499310  47.0649310  10.7539310
  37.4099310  46.1099310  10.7169310  36.9949310  47.2929310  11.5639310
  37.3869310  46.9719310  10.8529310  45.4149310  43.7179310  17.4359310
  44.7239310  43.0779310  17.6039310  45.2069310  44.0739310  16.5729310
  45.2999310  43.6809310  17.3469310  31.0329310  42.8199310   4.5729310
  31.6979310  43.4199310   4.9109310  30.2009310  43.2539310   4.7619310
  31.0119310  42.9519310   4.6409310  33.3659310  47.2649310   6.7749310
  34.0449310  46.9849310   7.3889310  33.4639310  48.2149310   6.7259310
  33.4649310  47.3509310   6.8479310  33.0359310  37.4559310   7.5399310
  32.7979310  36.6369310   7.1059310  32.2749310  38.0239310   7.4129310
  32.9079310  37.4239310   7.4679310  37.6069310  36.2709310   3.5439310
  37.8519310  35.3959310   3.8449310  37.3919310  36.7479310   4.3449310
  37.6109310  36.2199310   3.6849310  42.8389310  38.0199310   6.0819310
  42.5449310  38.7349310   5.5179310  42.5679310  38.2809310   6.9619310
  42.7669310  38.1449310   6.1219310  41.2929310  49.6759310  11.1639310
  41.2289310  49.1559310  11.9659310  41.8379310  50.4249310  11.4069310
  41.3539310  49.7049310  11.2979310  46.7919310  48.5719310   7.7829310
  45.8769310  48.5819310   7.4999310  46.9139310  47.7039310   8.1679310
  46.6899310  48.4619310   7.7959310  36.4139310  44.8889310   4.8669310
  37.2369310  45.3749310   4.8289310  36.4649310  44.3939310   5.6839310
  36.5259310  44.8879310   4.9659310  33.1049310  52.7639310   8.9429310
  32.5629310  53.1869310   9.6099310  34.0039310  52.9609310   9.2049310
  33.1499310  52.8439310   9.0619310  38.7089310  46.5259310   4.8689310
  38.1859310  47.2289310   5.2549310  38.7209310  46.7219310   3.9329310
  38.6439310  46.6409310   4.7989310  34.6459310  46.8289310  15.8629310
  34.6079310  47.1459310  14.9609310  33.7739310  46.4699310  16.0279310
  34.5289310  46.8229310  15.7689310  38.5539310  48.5689310  14.4379310
  37.7709310  48.9749310  14.0689310  38.2659310  47.6979310  14.7109310
  38.4169310  48.5089310  14.4259310  32.2919310  50.5809310  11.1809310
  32.9469310  50.9419310  10.5839310  31.6139310  50.2259310  10.6059310
  32.2889310  50.5819310  11.0309310  47.6039310  32.4729310  10.4319310
  47.7499310  32.8779310  11.2869310  46.6589310  32.5409310  10.2929310
  47.5019310  32.5329310  10.5239310  37.5799310  44.5259310  12.9169310
  37.9049310  43.7229310  13.3239310  36.7109310  44.2939310  12.5909310
  37.5099310  44.3939310  12.9269310  33.1959310  45.4599310  18.8859310
  33.9989310  45.9699310  18.7759310  32.7459310  45.8779310  19.6199310
  33.2409310  45.5789310  18.9659310  43.6919310  42.6079310   8.1459310
  44.1899310  42.4009310   7.3549310  43.8759310  43.5329310   8.3099310
  43.7789310  42.6999310   8.0659310  32.2809310  46.3909310   2.3449310
  33.0479310  46.0679310   2.8199310  31.5389310  46.1519310   2.8999310
  32.2839310  46.3189310   2.4769310  48.3799310  53.3799310  10.2139310
  48.2329310  52.4369310  10.2949310  49.0339310  53.5779310  10.8849310
  48.4449310  53.2839310  10.3099310  49.7129310  49.6579310   8.9999310
  48.8689310  50.0709310   9.1839310  49.5809310  48.7359310   9.2179310
  49.5879310  49.5929310   9.0509310  31.6189310  40.1469310  11.0409310
  32.4169310  39.7969310  10.6459310  31.5989310  39.7669310  11.9189310
  31.7179310  40.0529310  11.1029310  41.0129310  43.2039310   8.7689310
  40.6059310  43.9639310   8.3529310  41.8749310  43.1389310   8.3589310
  41.0709310  43.2929310   8.6629310  45.5499310  44.4429310   6.2509310
  46.2239310  44.8549310   6.7909310  44.7399310  44.8889310   6.4969310
  45.5329310  44.5529310   6.3509310  33.7039310  44.9339310   9.7539310
  34.6609310  44.9179310   9.7349310  33.4589310  44.1199310  10.1939310
  33.7949310  44.8279310   9.8079310  44.0069310  38.9439310  12.2929310
  43.5529310  39.3859310  11.5749310  43.4649310  39.1189310  13.0619310
  43.8799310  39.0229310  12.2989310  49.1719310  43.8719310  11.2369310
  48.7829310  43.3979310  11.9729310  48.6369310  44.6609310  11.1509310
  49.0539310  43.9119310  11.3199310  42.5459310  40.4199310  10.1029310
  43.1719310  40.8699310   9.5359310  42.4039310  39.5729310   9.6789310
  42.6079310  40.3689310   9.9759310  41.0809310  48.2969310  13.6019310
  41.4739310  49.1179310  13.8979310  40.1679310  48.3519310  13.8839310
  41.0149310  48.4089310  13.6759310  42.5699310  37.1649310   2.8589310
  41.8109310  37.4129310   2.3309310  43.1249310  37.9449310   2.8599310
  42.5439310  37.2969310   2.7919310  35.1049310  40.4579310   4.5759310
  35.0149310  40.1869310   3.6629310  34.2069310  40.6149310   4.8689310
  34.9779310  40.4439310   4.4969310  44.6919310  36.3489310   7.3719310
  44.0299310  36.7549310   6.8119310  45.3869310  36.0859310   6.7689310
  44.6959310  36.3679310   7.2229310  46.3049310  41.5809310  12.7509310
  46.0399310  40.9289310  13.4009310  46.5239310  41.0679310  11.9729310
  46.2989310  41.4319310  12.7349310  37.0509310  43.3739310   6.9759310
  37.2389310  42.6219310   6.4139310  37.9069310  43.7649310   7.1459310
  37.1839310  43.3279310   6.9259310  38.7069310  38.2339310  16.2159310
  39.6289310  38.3099310  16.4599310  38.2549310  38.8509310  16.7909310
  38.7669310  38.3219310  16.3199310  35.6979310  35.2439310   9.1349310
  35.8689310  36.1649310   9.3339310  36.2639310  34.7599310   9.7359310
  35.7919310  35.2999310   9.2369310  36.5519310  44.3709310   9.5279310
  36.8089310  43.9529310   8.7059310  36.6359310  43.6789310  10.1839310
  36.5959310  44.2289310   9.5069310  43.8639310  48.8259310   9.9869310
  43.9619310  49.0729310   9.0669310  43.0099310  49.1759310  10.2389310
  43.7669310  48.9019310   9.9019310  41.2539310  53.2399310   7.3259310
  41.0689310  52.4129310   6.8799310  40.9419310  53.9129310   6.7209310
  41.1899310  53.2199310   7.1909310  47.3579310  35.1099310  18.9509310
  46.8169310  34.5949310  19.5489310  46.8939310  35.9429310  18.8639310
  47.2299310  35.1509310  19.0169310  44.9519310  51.2519310  10.5259310
  44.4079310  51.8519310  10.0149310  44.5609310  50.3909310  10.3799310
  44.8329310  51.2189310  10.4419310  39.0439310  53.6199310   9.4989310
  39.0099310  52.9329310  10.1639310  39.5199310  53.2249310   8.7689310
  39.0999310  53.4819310   9.4909310  40.9229310  44.3479310   2.1869310
  41.6529310  44.9679310   2.1759310  40.1409310  44.8989310   2.1559310
  40.9159310  44.4979310   2.1809310  40.5549310  41.7289310  11.3029310
  40.1059310  40.9749310  11.6849310  41.2769310  41.3489310  10.8029310
  40.5899310  41.5839310  11.2879310  42.0899310  45.8529310  13.0149310
  41.8139310  46.6769310  13.4169310  43.0409310  45.8399310  13.1239310
  42.1769310  45.9569310  13.0799310  37.5779310  38.4659310   5.2859310
  37.4299310  39.4089310   5.2079310  36.7859310  38.1339310   5.7099310
  37.4579310  38.5439310   5.3299310  41.4459310  53.0759310  11.2639310
  42.2359310  53.6139310  11.2099310  40.8459310  53.4679310  10.6299310
  41.4699310  53.1949310  11.1759310  41.2289310  38.8099310  17.7049310
  40.7629310  39.4079310  18.2889310  41.8239310  39.3739310  17.2099310
  41.2449310  38.9579310  17.7159310  36.8339310  38.9549310   1.8809310
  35.9169310  38.7399310   2.0469310  37.3089310  38.5669310   2.6159310
  36.7769310  38.8779310   1.9959310  33.4759310  43.7009310  15.1519310
  32.7969310  44.3399310  15.3719310  33.0669310  42.8519310  15.3149310
  33.3359310  43.6739310  15.2009310  44.4359310  51.7059310   6.1159310
  44.0679310  52.2869310   6.7809310  45.3269310  52.0289310   5.9819310
  44.5029310  51.8219310   6.1839310  31.6239310  36.6099310  13.7339310
  32.4859310  36.5709310  14.1479310  31.8099310  36.7599310  12.8069310
  31.7579310  36.6239310  13.6679310  42.5409310  44.1429310  11.1009310
  42.2729310  44.7859310  11.7579310  41.7419310  43.9609310  10.6049310
  42.4039310  44.2019310  11.1209310  31.0829310  41.7809310  17.7209310
  30.4829310  42.5139310  17.8619310  31.6299310  41.7639310  18.5069310
  31.0759310  41.8729310  17.8399310  32.4389310  40.6819310   5.7639310
  32.8389310  41.2669310   6.4079310  31.9749310  41.2669310   5.1649310
  32.4309310  40.8319310   5.7699310  42.5179310  42.4769310  13.6629310
  42.3549310  42.7859310  12.7719310  41.6569310  42.2129310  13.9859310
  42.3869310  42.4829310  13.5909310  42.7399310  36.6979310  17.8009310
  42.7369310  36.4079310  16.8889310  42.0679310  37.3789310  17.8379310
  42.6529310  36.7479310  17.6889310  42.4499310  46.1399310  16.1989310
  41.6319310  45.9839310  15.7279310  42.4979310  47.0919310  16.2879310
  42.3519310  46.2419310  16.1499310  46.7999310  40.8359310  17.4299310
  47.5129310  40.2039310  17.5249310  47.2399310  41.6729310  17.2839310
  46.9469310  40.8619310  17.4229310  32.8289310  42.6179310  10.9519310
  32.0499310  43.1239310  11.1829310  32.5669310  41.7049310  11.0749310
  32.6959310  42.5659310  10.9969310  48.2729310  52.1129310  12.9989310
  48.5549310  52.0169310  13.9089310  47.4919310  52.6639310  13.0479310
  48.2089310  52.1709310  13.1219310  35.9249310  46.7749310   8.0579310
  35.8379310  47.5549310   8.6069310  35.9969310  46.0509310   8.6809310
  35.9229310  46.7819310   8.2079310  31.5559310  37.8589310   3.2629310
  31.4989310  37.6049310   2.3419310  31.0079310  38.6409310   3.3309310
  31.4789310  37.9269310   3.1539310  36.0269310  41.9159310  15.2419310
  35.9359310  41.7959310  14.2969310  35.3029310  42.4939310  15.4799310
  35.9229310  41.9749310  15.1509310  37.1089310  35.4319310   6.6939310
  36.7039310  35.1009310   7.4959310  37.2159310  34.6579310   6.1419310
  37.0709310  35.2909310   6.7259310  48.1939310  50.8909310   6.4339310
  48.2639310  50.2619310   7.1509310  48.2599310  50.3589310   5.6409310
  48.2109310  50.7429310   6.4239310  37.6519310  41.4779310   4.5799310
  38.0249310  41.4129310   3.7009310  36.7469310  41.1819310   4.4789310
  37.5839310  41.4309310   4.4549310  37.3509310  48.6349310   3.0139310
  36.6189310  48.1459310   2.6379310  38.0109310  48.6479310   2.3219310
  37.3409310  48.5739310   2.8779310  39.7969310  38.3749310   6.9649310
  38.9449310  38.2369310   6.5529310  39.8469310  39.3219310   7.1009310
  39.6949310  38.4789310   6.9299310  32.2969310  51.9799310  13.5849310
  32.0039310  51.7069310  12.7149310  31.9889310  52.8819310  13.6689310
  32.2199310  52.0599310  13.4839310  34.6689310  39.0429310  16.1559310
  35.4599310  39.0759310  15.6189310  34.3089310  39.9289310  16.1079310
  34.7239310  39.1599310  16.0809310  45.8249310  37.2959310  17.6249310
  45.8859310  36.9489310  16.7349310  44.8849310  37.3439310  17.7989310
  45.7119310  37.2579310  17.5329310  36.2119310  49.3439310  12.9829310
  35.6419310  50.0309310  13.3299310  35.7599310  48.5279310  13.1969310
  36.0809310  49.3279310  13.0549310  42.8039310  50.9249310   4.0739310
  42.1189310  50.8529310   4.7389310  43.6019310  51.1029310   4.5709310
  42.8179310  50.9379310   4.2229310  40.5149310  36.5489310   5.0559310
  40.2899310  37.3339310   5.5549310  41.4139310  36.7009310   4.7639310
  40.6019310  36.6689310   5.0829310  45.9419310  36.2689310   9.9259310
  46.8129310  35.8759310   9.9829310  45.8429310  36.4999310   9.0029310
  46.0409310  36.2479310   9.8149310  42.8499310  36.5359310  15.0599310
  42.5899310  35.7599310  14.5629310  43.8059310  36.5409310  15.0119310
  42.9389310  36.4369310  14.9899310  45.9669310  40.1339310   5.1739310
  45.7459310  39.8839310   6.0719310  46.7829310  39.6679310   4.9909310
  46.0429310  40.0419310   5.2659310  39.7699310  38.6839310  10.3409310
  38.9189310  38.2529310  10.2539310  39.8689310  38.8309310  11.2819310
  39.6729310  38.6479310  10.4499310  38.4009310  35.7049310  17.4919310
  37.8479310  36.0159310  18.2079310  38.4619310  36.4509310  16.8949310
  38.3379310  35.8399310  17.5069310  37.1919310  48.2179310   6.1769310
  36.5559310  47.7629310   6.7279310  36.7039310  48.9519310   5.8039310
  37.0489310  48.2539310   6.1999310  43.0699310  49.8889310  14.3819310
  42.8669310  49.5789310  15.2639310  43.5839310  49.1809310  13.9919310
  43.1099310  49.7579310  14.4449310  48.6579310  40.1579310   3.0099310
  47.8349310  39.6709310   2.9619310  48.4059310  41.0219310   3.3379310
  48.5209310  40.2059310   3.0459310  45.7149310  47.4909310  17.0289310
  45.0749310  46.9579310  17.5009310  45.6769310  47.1679310  16.1279310
  45.6279310  47.3809310  16.9739310  39.4819310  49.8589310  17.1639310
  39.0949310  49.4939310  16.3679310  38.8339310  50.4879310  17.4789310
  39.3489310  49.8919310  17.1029310  31.8419310  49.2129310  14.5329310
  31.4599310  50.0559310  14.7769310  32.6659310  49.4389310  14.1019310
  31.8979310  49.3499310  14.5089310  33.7449310  38.8389310   9.9549310
  33.6509310  38.3719310   9.1249310  34.5679310  38.5159310  10.3199310
  33.8379310  38.7379310   9.8959310  47.4499310  47.3499310   5.2779310
  47.4719310  47.4659310   6.2279310  47.6229310  48.2229310   4.9269310
  47.4749310  47.4769310   5.3549310  46.8249310  53.2899310   5.5849310
  46.5609310  53.2549310   4.6659310  47.4469310  52.5689310   5.6839310
  46.8709310  53.1929310   5.4799310  43.9989310  53.2859310   3.0959310
  43.4829310  52.6009310   3.5219310  43.5159310  54.0929310   3.2699310
  43.8709310  53.3009310   3.1729310  35.9079310  38.0969310  11.2109310
  36.3599310  37.5179310  11.8249310  36.4709310  38.1119310  10.4379310
  36.0379310  38.0249310  11.1909310  32.4899310  41.1969310  15.4799310
  31.9239310  41.5579310  14.7979310  31.9939310  41.3129310  16.2899310
  32.3539310  41.2579310  15.4959310  43.7359310  54.8289310  11.3969310
  44.5109310  54.6729310  10.8579310  43.7049310  55.7799310  11.5029310
  43.8309310  54.9309310  11.3419310  40.3059310  51.2409310   5.6259310
  40.0679310  50.4279310   6.0699310  39.5009310  51.5189310   5.1889310
  40.1729310  51.1729310   5.6269310  45.4989310  50.6609310  16.9329310
  45.7689310  49.7569310  17.0929310  44.5469310  50.6479310  17.0339310
  45.4119310  50.5439310  16.9669310  45.8089310  46.3669310  14.6299310
  45.1989310  45.6309310  14.6859310  45.3769310  46.9909310  14.0469310
  45.6759310  46.3519310  14.5629310  34.9069310  46.9549310  13.0549310
  34.4459310  47.2989310  12.2899310  34.9879310  46.0169310  12.8829310
  34.8579310  46.8789310  12.9349310  33.1029310  44.5959310   5.2399310
  34.0589310  44.6279310   5.2669310  32.8319310  45.5129310   5.2779310
  33.1909310  44.7169310   5.2479310  37.9429310  40.0549310  18.1829310
  37.1779310  39.6579310  18.6009310  37.6889310  40.9659310  18.0349310
  37.8119310  40.1209310  18.2179310  34.4619310  37.8859310   3.2109310
  34.7699310  37.9509310   4.1149310  33.5439310  37.6279310   3.2899310
  34.3839310  37.8609310   3.3369310  43.7709310  42.1469310   5.5949310
  44.3909310  42.5909310   5.0159310  42.9609310  42.6509310   5.5099310
  43.7469310  42.2689310   5.5099310  36.0629310  50.2829310   4.8269310
  35.3629310  50.6809310   4.3099310  36.4949310  49.6799310   4.2209310
  36.0289310  50.2569310   4.6829310  44.6639310  48.2259310  12.6489310
  44.4909310  48.1489310  11.7109310  45.4469310  48.7729310  12.7039310
  44.7419310  48.2859310  12.5359310  39.4819310  44.6099310   6.9679310
  39.9959310  44.0099310   6.4279310  39.2079310  45.2999310   6.3639310
  39.5119310  44.6209310   6.8219310  46.5099310  53.1769310  16.2589310
  46.9189310  53.3489310  17.1069310  46.2409310  52.2599310  16.3039310
  46.5279310  53.0819310  16.3729310  45.5239310  37.8389310  14.5269310
  45.2369310  38.6649310  14.9179310  45.3009310  37.9229310  13.5999310
  45.4579310  37.9559310  14.4589310  49.1769310  52.4689310   3.2569310
  49.7639310  52.2919310   2.5219310  48.5859310  53.1489310   2.9329310
  49.1759310  52.5329310   3.1209310  49.5389310  39.1749310   7.0129310
  50.1209310  39.6599310   6.4269310  48.9729310  39.8449310   7.3959310
  49.5409310  39.3229310   6.9869310  43.9179310  45.9509310  18.3209310
  43.1069310  45.9889310  17.8139310  44.2819310  45.0879310  18.1259310
  43.8609310  45.8459310  18.2309310  37.2579310  37.9939310   8.8789310
  37.0799310  38.5839310   8.1469310  37.7429310  37.2669310   8.4889310
  37.2969310  37.9769310   8.7359310  30.8629310  44.5839310   7.4559310
  31.4599310  44.8399310   6.7519310  31.1659310  45.0789310   8.2179310
  30.9779310  44.6799310   7.4629310  33.5439310  48.0909310  11.2609310
  33.8029310  48.7839310  10.6529310  32.6719310  48.3499310  11.5599310
  33.4659310  48.2129310  11.2209310  47.2319310  45.6809310   8.2419310
  48.0849310  45.3399310   7.9719310  47.2539310  45.6519310   9.1979310
  47.3439310  45.6329310   8.3289310  40.1619310  42.5919310  16.1469310
  39.4079310  42.2619310  15.6579310  39.9609310  42.3939310  17.0609310
  40.0399310  42.5239310  16.2009310  43.7119310  41.9149310  18.2159310
  42.9279310  41.8759310  18.7639310  44.3489310  41.3639310  18.6699310
  43.6929310  41.8399310  18.3439310  49.3079310  35.7069310   7.7499310
  48.7119310  35.3569310   8.4119310  50.0259310  35.0749310   7.7149310
  49.3239310  35.5819310   7.8299310  45.3779310  46.3519310   3.4569310
  45.7739310  46.6929310   4.2589310  45.8689310  46.7709310   2.7499310
  45.4909310  46.4489310   3.4689310  45.1069310  40.4379310  15.4189310
  45.7999310  40.6319310  16.0509310  44.4709310  41.1439310  15.5369310
  45.1139310  40.5529310  15.5149310  45.5719310  52.7079310  12.8939310
  45.0989310  53.5409310  12.8869310  45.0409310  52.1269310  12.3499310
  45.4429310  52.7399310  12.8239310  37.6839310  18.5119310  70.3179310
  37.9119310  18.4839310  71.2469310  37.0549310  17.7999310  70.2049310
  37.6329310  18.4169310  70.4229310  35.0829310  32.6979310  70.5779310
  34.1289310  32.6299310  70.5459310  35.2719310  33.0049310  71.4639310
  34.9849310  32.7289310  70.6869310  39.8479310  30.1419310  63.7409310
  39.6739310  30.3029310  64.6689310  39.0829310  29.6559310  63.4349310
  39.7279310  30.0999310  63.8209310  35.5999310  16.7979310  69.8239310
  35.0399310  17.2459310  70.4579310  35.4539310  15.8669310  69.9909310
  35.5099310  16.7359310  69.9259310  36.4189310  25.0389310  59.0719310
  36.2649310  25.4959310  59.8989310  37.1309310  24.4289310  59.2639310
  36.4899310  25.0189310  59.2019310  39.8139310  20.2479310  69.6769310
  39.2109310  19.6069310  70.0519310  40.6029310  20.1789310  70.2149310
  39.8379310  20.1579310  69.7939310  46.5799310  31.1979310  57.2579310
  45.7179310  31.5259310  57.0019310  46.4839310  30.2459310  57.2569310
  46.4569310  31.1179310  57.2249310  33.3059310  31.2949310  64.0349310
  33.3439310  32.1879310  63.6909310  32.5069310  31.2739310  64.5609310
  33.2089310  31.4069310  64.0579310  38.0169310  33.0849310  60.7239310
  37.2179310  32.5579310  60.7339310  38.3609310  32.9819310  59.8369310
  37.9589310  33.0039310  60.6119310  42.2369310  20.0739310  70.9449310
  42.4149310  19.1919310  71.2709310  42.5559310  20.6539310  71.6369310
  42.3009310  20.0349310  71.0759310  41.9249310  28.0699310  63.1909310
  41.4989310  27.4629310  62.5869310  41.2619310  28.7369310  63.3689310
  41.7859310  28.0779310  63.1369310  47.6769310  18.7019310  62.4439310
  47.7449310  17.7549310  62.3199310  48.5459310  18.9669310  62.7449310
  47.7969310  18.6149310  62.4669310  48.7959310  22.9929310  64.2849310
  48.0169310  23.1029310  64.8299310  49.1399310  23.8789310  64.1759310
  48.7399310  23.1199310  64.3409310  39.8919310  19.1209310  58.4329310
  39.6259310  18.6579310  59.2279310  39.9079310  18.4439310  57.7569310
  39.8599310  18.9749310  58.4489310  40.1269310  26.3089310  71.7169310
  39.9989310  25.4439310  72.1059310  40.5699310  26.1339310  70.8859310
  40.1669310  26.1759310  71.6599310  48.7389310  26.8979310  60.4659310
  48.3729310  27.5389310  61.0759310  47.9739310  26.4759310  60.0739310
  48.5939310  26.9259310  60.4939310  31.2509310  20.6389310  70.2739310
  31.5279310  21.2079310  70.9919310  30.6489310  20.0159310  70.6809310
  31.2099310  20.6319310  70.4179310  32.1239310  26.9759310  72.8669310
  31.2029310  26.7559310  72.7269310  32.2039310  27.0829310  73.8139310
  32.0159310  26.9609310  72.9699310  47.0639310  18.9279310  59.5709310
  47.1959310  18.7839310  60.5079310  46.1959310  19.3269310  59.5109310
  46.9699310  18.9599310  59.6839310  43.7139310  30.6649310  64.0719310
  43.8899310  31.5149310  63.6689310  42.9549310  30.3279310  63.5979310
  43.6399310  30.7309310  63.9599310  43.5039310  33.9899310  65.3239310
  44.0899310  34.7269310  65.1489310  42.7219310  34.1759310  64.8049310
  43.4789310  34.1079310  65.2349310  35.8259310  21.2449310  63.8439310
  35.4189310  21.2439310  62.9769310  35.3399310  21.9079310  64.3349310
  35.7119310  21.3299310  63.7959310  33.9449310  17.6409310  71.8619310
  34.1519310  18.5389310  72.1189310  33.5889310  17.2399310  72.6549310
  33.9259310  17.7039310  71.9959310  35.2529310  18.4319310  62.5619310
  34.4949310  18.4189310  63.1469310  35.7849310  17.6879310  62.8429310
  35.2239310  18.3349310  62.6729310  42.2929310  22.1299310  72.8609310
  42.8789310  22.4429310  73.5499310  41.5669310  22.7549310  72.8609310
  42.2749310  22.2499310  72.9489310  39.9129310  22.6309310  62.3929310
  39.0879310  22.6129310  61.9079310  39.6619310  22.4449310  63.2979310
  39.7749310  22.6049310  62.4469310  37.0269310  32.2959310  67.0099310
  36.7659310  31.9209310  67.8509310  37.7579310  31.7509310  66.7209310
  37.0869310  32.1779310  67.0799310  35.2649310  30.4889310  65.7249310
  34.5409310  30.7919310  65.1769310  35.8589310  31.2389310  65.7729310
  35.2489310  30.6239310  65.6609310  34.7379310  24.2529310  57.0629310
  34.1349310  24.9899310  56.9669310  35.3669310  24.5429310  57.7239310
  34.7409310  24.3839310  57.1349310  39.1649310  32.7149310  58.3559310
  39.6239310  31.8929310  58.5279310  39.8629310  33.3549310  58.2169310
  39.3129310  32.6919310  58.3599310  37.8879310  23.2059310  67.3379310
  38.7689310  23.4979310  67.5699310  37.9739310  22.8719310  66.4449310
  38.0119310  23.2009310  67.2529310  42.1849310  19.0249310  65.5219310
  41.2329310  18.9619310  65.5929310  42.5129310  18.2969310  66.0499310
  42.1049310  18.9239310  65.5989310  47.3139310  27.0329310  67.6439310
  47.7539310  27.5399310  68.3269310  46.6419310  26.5359310  68.1099310
  47.2849310  27.0339310  67.7909310  48.5289310  28.8009310  69.8719310
  47.8149310  29.4059310  69.6729310  49.2449310  29.3639310  70.1689310
  48.5299310  28.9499310  69.8849310  42.0409310  29.8619310  58.8099310
  42.3449310  28.9689310  58.9659310  42.5679310  30.4019310  59.3989310
  42.1469310  29.8169310  58.9049310  44.6639310  20.3499310  59.3859310
  44.7679310  20.6939310  60.2729310  44.5339310  21.1259310  58.8409310
  44.6609310  20.4929310  59.4299310  47.3059310  21.1979310  66.7129310
  48.2179310  21.2089310  67.0059310  47.3059310  20.6129310  65.9549310
  47.4229310  21.1239310  66.6539310  45.1509310  25.5349310  68.5639310
  44.2759310  25.2779310  68.2739310  45.5029310  24.7519310  68.9879310
  45.0839310  25.4019310  68.5809310  34.8599310  32.4509310  73.7219310
  34.6079310  33.3549310  73.9129310  35.7649310  32.3859310  74.0249310
  34.9439310  32.5589310  73.7849310  36.8929310  17.5239310  57.3729310
  37.2349310  17.5329310  58.2669310  36.4079310  18.3459310  57.2949310
  36.8749310  17.6309310  57.4769310  32.0619310  17.4399310  67.2769310
  32.8959310  17.8939310  67.1529310  31.4739310  17.8389310  66.6369310
  32.0939310  17.5489310  67.1799310  39.4959310  22.0349310  65.0269310
  39.5819310  21.2509310  65.5699310  39.9359310  22.7219310  65.5269310
  39.5629310  22.0229310  65.1599310  48.1579310  19.6529310  74.3669310
  47.2589310  19.3249310  74.3619310  48.4829310  19.4759310  73.4849310
  48.0839310  19.5879310  74.2539310  48.1739310  30.7749310  60.3629310
  48.2949310  31.6499310  59.9949310  48.3829310  30.1809310  59.6419310
  48.2159310  30.8109310  60.2229310  46.5919310  16.1739310  59.2409310
  46.7199310  17.0889310  58.9889310  45.6429310  16.0789310  59.3259310
  46.4869310  16.2789310  59.2199310  32.5709310  34.2569310  61.5459310
  31.7899310  34.1259310  61.0079310  32.5409310  35.1819310  61.7899310
  32.4669310  34.3589310  61.5079310  42.6219310  30.0589310  73.4969310
  43.2039310  29.8949310  74.2379310  42.0289310  30.7449310  73.8049310
  42.6199310  30.1259310  73.6309310  38.9239310  30.5229310  66.2359310
  38.4439310  29.7149310  66.4129310  39.6539310  30.5089310  66.8549310
  38.9559310  30.4179310  66.3379310  49.7669310  17.5119310  57.2419310
  49.5909310  18.3529310  56.8209310  48.9579310  17.0129310  57.1279310
  49.6409310  17.5559310  57.1739310  52.3359310  23.4399310  64.6199310
  52.3499310  23.1269310  65.5249310  52.2869310  24.3929310  64.6969310
  52.3319310  23.5219310  64.7459310  41.7289310  21.3759310  58.5029310
  41.1029310  20.6519310  58.5269310  41.9469310  21.5349310  59.4209310
  41.6769310  21.3039310  58.6229310  38.4669310  23.0239310  70.6229310
  37.6219310  22.7039310  70.9399310  38.9399310  22.2329310  70.3639310
  38.4189310  22.8819310  70.6309310  34.3019310  32.7819310  60.0799310
  33.7199310  33.2799310  60.6529310  34.5309310  33.3929310  59.3799310
  34.2569310  32.9239310  60.0639310  48.1949310  18.8909310  71.7979310
  47.3289310  18.7269310  71.4269310  48.7769310  18.2989310  71.3199310
  48.1589310  18.7939310  71.6889310  47.9009310  24.3409310  58.5039310
  47.4439310  24.0999310  59.3099310  48.8269310  24.2009310  58.7029310
  47.9609310  24.2919310  58.6329310  37.6559310  27.2499310  71.9849310
  38.5359310  26.8769310  71.9329310  37.1179310  26.6689310  71.4479310
  37.6999310  27.1279310  71.9099310  46.6449310  30.9609310  70.3419310
  46.2939310  30.8579310  71.2269310  46.7929310  31.9029310  70.2519310
  46.6189310  31.0679310  70.4439310  48.7819310  32.7279310  72.2209310
  48.9799310  32.3329310  73.0709310  48.1109310  33.3829310  72.4119310
  48.7209310  32.7609310  72.3539310  46.0259310  20.0579310  64.0919310
  46.7219310  19.6719310  63.5589310  45.4159310  19.3359310  64.2469310
  46.0369310  19.9159310  64.0429310  44.0999310  25.5069310  71.6339310
  43.5429310  25.1129310  70.9619310  43.5239310  26.1169310  72.0939310
  43.9549310  25.5349310  71.6069310  41.9269310  21.4939310  61.1669310
  41.1039310  21.7769310  61.5629310  42.6049310  21.8799310  61.7219310
  41.9089310  21.5789310  61.2889310  34.9389310  25.0849310  69.2599310
  34.5619310  24.9579310  70.1299310  34.3759310  24.5739310  68.6779310
  34.8189310  25.0039310  69.2969310  43.9459310  26.5949310  64.7149310
  44.4909310  27.0959310  65.3219310  43.2519310  27.2019310  64.4579310
  43.9269310  26.7359310  64.7599310  31.9289310  28.1609310  65.5359310
  32.3229310  28.0909310  64.6659310  32.5409310  27.7059310  66.1129310
  32.0579310  28.0939310  65.4979310  46.6499310  23.8409310  60.9079310
  46.6069310  24.4599310  61.6379310  46.2839310  23.0299310  61.2599310
  46.5979310  23.8169310  61.0469310  41.3999310  24.7049310  61.3869310
  40.7279310  24.0239310  61.4169310  41.4789310  24.9219310  60.4579310
  41.3239310  24.6459310  61.2719310  42.5859310  33.6839310  70.5049310
  42.0369310  33.6149310  69.7249310  42.9499310  32.8069310  70.6209310
  42.5629310  33.5629310  70.4199310  36.0649310  22.0059310  69.3019310
  35.4749310  21.2669310  69.1499310  36.6769310  21.9779310  68.5669310
  36.0679310  21.9079310  69.1879310  37.4499310  28.1979310  67.3339310
  37.4099310  27.2429310  67.2969310  36.9949310  28.4259310  68.1439310
  37.3869310  28.1049310  67.4329310  45.4149310  24.8509310  74.0159310
  44.7239310  24.2109310  74.1839310  45.2069310  25.2069310  73.1529310
  45.2999310  24.8139310  73.9269310  31.0329310  23.9529310  61.1529310
  31.6979310  24.5529310  61.4909310  30.2009310  24.3869310  61.3419310
  31.0119310  24.0849310  61.2209310  33.3659310  28.3979310  63.3549310
  34.0449310  28.1179310  63.9689310  33.4639310  29.3479310  63.3059310
  33.4649310  28.4839310  63.4279310  38.7799310  27.1339310  58.4419310
  38.3969310  26.8249310  57.6209310  39.0189310  28.0449310  58.2669310
  38.7619310  27.2109310  58.3149310  37.6069310  17.4039310  60.1239310
  37.8519310  16.5289310  60.4249310  37.3919310  17.8809310  60.9249310
  37.6109310  17.3529310  60.2649310  42.8389310  19.1529310  62.6619310
  42.5449310  19.8679310  62.0979310  42.5679310  19.4139310  63.5419310
  42.7669310  19.2779310  62.7019310  41.2929310  30.8089310  67.7439310
  41.2289310  30.2889310  68.5459310  41.8379310  31.5579310  67.9869310
  41.3539310  30.8379310  67.8779310  46.7919310  29.7049310  64.3629310
  45.8769310  29.7149310  64.0799310  46.9139310  28.8369310  64.7479310
  46.6899310  29.5949310  64.3759310  34.4449310  21.6689310  58.1579310
  33.5199310  21.4259310  58.1959310  34.4409310  22.5889310  57.8929310
  34.3269310  21.7559310  58.1289310  36.4139310  26.0219310  61.4469310
  37.2369310  26.5079310  61.4089310  36.4649310  25.5269310  62.2639310
  36.5259310  26.0209310  61.5459310  33.1049310  33.8969310  65.5229310
  32.5629310  34.3199310  66.1899310  34.0039310  34.0939310  65.7849310
  33.1499310  33.9769310  65.6419310  38.7089310  27.6589310  61.4489310
  38.1859310  28.3619310  61.8349310  38.7209310  27.8549310  60.5129310
  38.6439310  27.7739310  61.3789310  45.7519310  22.5259310  57.6129310
  46.2299310  22.1729310  56.8639310  46.2539310  23.2979310  57.8759310
  45.8769310  22.5799310  57.5509310  34.6459310  27.9619310  72.4429310
  34.6079310  28.2789310  71.5409310  33.7739310  27.6029310  72.6079310
  34.5289310  27.9559310  72.3489310  38.5539310  29.7019310  71.0179310
  37.7709310  30.1079310  70.6489310  38.2659310  28.8309310  71.2909310
  38.4169310  29.6419310  71.0059310  32.2919310  31.7139310  67.7609310
  32.9469310  32.0749310  67.1639310  31.6139310  31.3589310  67.1859310
  32.2889310  31.7149310  67.6109310  47.6039310  13.6059310  67.0119310
  47.7499310  14.0109310  67.8669310  46.6589310  13.6739310  66.8729310
  47.5019310  13.6659310  67.1039310  37.5799310  25.6589310  69.4969310
  37.9049310  24.8559310  69.9039310  36.7109310  25.4269310  69.1709310
  37.5099310  25.5269310  69.5069310  43.6919310  23.7409310  64.7259310
  44.1899310  23.5339310  63.9349310  43.8759310  24.6659310  64.8899310
  43.7789310  23.8329310  64.6459310  38.3169310  22.4869310  58.4669310
  37.8359310  21.6699310  58.3359310  38.7509310  22.6459310  57.6289310
  38.3109310  22.4029310  58.3429310  32.2809310  27.5239310  58.9249310
  33.0479310  27.2009310  59.3999310  31.5389310  27.2849310  59.4799310
  32.2839310  27.4519310  59.0569310  48.3799310  34.5129310  66.7939310
  48.2329310  33.5699310  66.8749310  49.0339310  34.7109310  67.4649310
  48.4449310  34.4169310  66.8899310  49.7129310  30.7909310  65.5799310
  48.8689310  31.2039310  65.7639310  49.5809310  29.8689310  65.7979310
  49.5879310  30.7259310  65.6309310  31.6189310  21.2799310  67.6209310
  32.4169310  20.9299310  67.2259310  31.5989310  20.8999310  68.4989310
  31.7179310  21.1859310  67.6829310  41.0129310  24.3369310  65.3489310
  40.6059310  25.0969310  64.9329310  41.8749310  24.2719310  64.9389310
  41.0709310  24.4259310  65.2429310  45.5499310  25.5759310  62.8309310
  46.2239310  25.9879310  63.3709310  44.7399310  26.0219310  63.0769310
  45.5329310  25.6859310  62.9309310  33.7039310  26.0669310  66.3339310
  34.6609310  26.0509310  66.3149310  33.4589310  25.2529310  66.7739310
  33.7949310  25.9609310  66.3879310  44.0069310  20.0769310  68.8729310
  43.5529310  20.5189310  68.1549310  43.4649310  20.2519310  69.6419310
  43.8799310  20.1559310  68.8789310  49.1719310  25.0049310  67.8169310
  48.7829310  24.5309310  68.5529310  48.6369310  25.7939310  67.7309310
  49.0539310  25.0449310  67.8999310  42.5459310  21.5529310  66.6829310
  43.1719310  22.0029310  66.1159310  42.4039310  20.7059310  66.2589310
  42.6079310  21.5019310  66.5559310  41.0809310  29.4299310  70.1819310
  41.4739310  30.2509310  70.4779310  40.1679310  29.4849310  70.4639310
  41.0149310  29.5419310  70.2559310  42.5699310  18.2979310  59.4389310
  41.8109310  18.5459310  58.9109310  43.1249310  19.0779310  59.4399310
  42.5439310  18.4299310  59.3719310  35.1049310  21.5909310  61.1559310
  35.0149310  21.3199310  60.2429310  34.2069310  21.7479310  61.4489310
  34.9779310  21.5769310  61.0769310  44.6919310  17.4819310  63.9519310
  44.0299310  17.8879310  63.3919310  45.3869310  17.2189310  63.3489310
  44.6959310  17.5009310  63.8029310  46.3049310  22.7139310  69.3309310
  46.0399310  22.0619310  69.9809310  46.5239310  22.2009310  68.5529310
  46.2989310  22.5649310  69.3149310  37.0509310  24.5069310  63.5559310
  37.2389310  23.7549310  62.9939310  37.9069310  24.8979310  63.7259310
  37.1839310  24.4609310  63.5059310  38.7069310  19.3669310  72.7959310
  39.6289310  19.4429310  73.0399310  38.2549310  19.9839310  73.3709310
  38.7669310  19.4549310  72.8999310  35.6979310  16.3769310  65.7149310
  35.8689310  17.2979310  65.9139310  36.2639310  15.8929310  66.3159310
  35.7919310  16.4329310  65.8169310  39.5009310  29.7139310  57.8389310
  40.3449310  29.6759310  58.2899310  39.7239310  29.9189310  56.9309310
  39.6379310  29.7349310  57.7809310  36.5519310  25.5039310  66.1079310
  36.8089310  25.0859310  65.2859310  36.6359310  24.8119310  66.7639310
  36.5959310  25.3619310  66.0869310  43.8639310  29.9589310  66.5669310
  43.9619310  30.2059310  65.6469310  43.0099310  30.3089310  66.8189310
  43.7669310  30.0349310  66.4819310  41.2539310  34.3729310  63.9059310
  41.0689310  33.5459310  63.4599310  40.9419310  35.0459310  63.3009310
  41.1899310  34.3529310  63.7709310  42.8419310  33.6079310  56.9959310
  42.9999310  34.4469310  56.5629310  43.1039310  33.7549310  57.9049310
  42.8959310  33.7339310  57.0569310  44.9519310  32.3849310  67.1059310
  44.4079310  32.9849310  66.5949310  44.5609310  31.5239310  66.9599310
  44.8329310  32.3519310  67.0219310  48.7269310  23.7939310  70.7289310
  47.8309310  23.4689310  70.6419310  48.6269310  24.6889310  71.0539310
  48.5989310  23.8669310  70.7599310  39.0439310  34.7529310  66.0789310
  39.0099310  34.0659310  66.7439310  39.5199310  34.3579310  65.3489310
  39.0999310  34.6149310  66.0709310  40.9229310  25.4809310  58.7669310
  41.6529310  26.1009310  58.7559310  40.1409310  26.0319310  58.7359310
  40.9159310  25.6309310  58.7609310  40.5549310  22.8619310  67.8829310
  40.1059310  22.1079310  68.2649310  41.2769310  22.4819310  67.3829310
  40.5899310  22.7169310  67.8679310  42.0899310  26.9859310  69.5949310
  41.8139310  27.8099310  69.9969310  43.0409310  26.9729310  69.7039310
  42.1769310  27.0899310  69.6599310  37.5779310  19.5989310  61.8659310
  37.4299310  20.5419310  61.7879310  36.7859310  19.2669310  62.2899310
  37.4579310  19.6769310  61.9099310  41.4459310  34.2089310  67.8439310
  42.2359310  34.7469310  67.7899310  40.8459310  34.6009310  67.2099310
  41.4699310  34.3279310  67.7559310  36.8339310  20.0879310  58.4609310
  35.9169310  19.8729310  58.6269310  37.3089310  19.6999310  59.1959310
  36.7769310  20.0109310  58.5759310  33.4759310  24.8339310  71.7319310
  32.7969310  25.4729310  71.9519310  33.0669310  23.9849310  71.8949310
  33.3359310  24.8069310  71.7809310  44.4359310  32.8389310  62.6959310
  44.0679310  33.4199310  63.3609310  45.3269310  33.1619310  62.5619310
  44.5029310  32.9549310  62.7639310  31.6239310  17.7429310  70.3139310
  32.4859310  17.7039310  70.7279310  31.8099310  17.8929310  69.3869310
  31.7579310  17.7569310  70.2479310  42.5409310  25.2759310  67.6809310
  42.2729310  25.9189310  68.3379310  41.7419310  25.0939310  67.1849310
  42.4039310  25.3349310  67.7009310  32.4389310  21.8149310  62.3439310
  32.8389310  22.3999310  62.9879310  31.9749310  22.3999310  61.7449310
  32.4309310  21.9649310  62.3499310  42.5179310  23.6099310  70.2429310
  42.3549310  23.9189310  69.3519310  41.6569310  23.3459310  70.5659310
  42.3869310  23.6159310  70.1709310  42.7399310  17.8309310  74.3809310
  42.7369310  17.5409310  73.4689310  42.0679310  18.5119310  74.4179310
  42.6529310  17.8809310  74.2689310  35.3149310  28.5299310  58.6729310
  35.4009310  28.4789310  57.7209310  34.7619310  29.2979310  58.8219310
  35.2549310  28.6219310  58.5699310  42.4499310  27.2729310  72.7789310
  41.6319310  27.1169310  72.3079310  42.4979310  28.2249310  72.8679310
  42.3519310  27.3749310  72.7299310  46.7999310  21.9689310  74.0099310
  47.5129310  21.3369310  74.1049310  47.2399310  22.8059310  73.8639310
  46.9469310  21.9949310  74.0029310  32.8289310  23.7509310  67.5319310
  32.0499310  24.2569310  67.7629310  32.5669310  22.8379310  67.6549310
  32.6959310  23.6989310  67.5769310  48.2729310  33.2459310  69.5789310
  48.5549310  33.1499310  70.4889310  47.4919310  33.7969310  69.6279310
  48.2089310  33.3039310  69.7019310  35.9249310  27.9079310  64.6379310
  35.8379310  28.6879310  65.1869310  35.9969310  27.1839310  65.2609310
  35.9229310  27.9149310  64.7879310  36.0269310  23.0489310  71.8219310
  35.9359310  22.9289310  70.8769310  35.3029310  23.6269310  72.0599310
  35.9229310  23.1079310  71.7309310  37.1089310  16.5649310  63.2739310
  36.7039310  16.2339310  64.0759310  37.2159310  15.7909310  62.7219310
  37.0709310  16.4239310  63.3059310  48.1939310  32.0239310  63.0139310
  48.2639310  31.3949310  63.7309310  48.2599310  31.4919310  62.2209310
  48.2109310  31.8759310  63.0039310  37.6519310  22.6109310  61.1599310
  38.0249310  22.5459310  60.2809310  36.7469310  22.3149310  61.0589310
  37.5839310  22.5639310  61.0349310  37.3509310  29.7679310  59.5939310
  36.6189310  29.2789310  59.2179310  38.0109310  29.7809310  58.9019310
  37.3409310  29.7069310  59.4579310  39.7969310  19.5079310  63.5449310
  38.9449310  19.3699310  63.1329310  39.8469310  20.4549310  63.6809310
  39.6949310  19.6119310  63.5099310  32.2969310  33.1129310  70.1649310
  32.0039310  32.8399310  69.2949310  31.9889310  34.0149310  70.2489310
  32.2199310  33.1929310  70.0639310  34.6689310  20.1759310  72.7359310
  35.4599310  20.2089310  72.1989310  34.3089310  21.0619310  72.6879310
  34.7239310  20.2929310  72.6609310  40.8419310  23.1789310  56.7839310
  40.8229310  23.8289310  57.4859310  41.1969310  22.3909310  57.1959310
  40.8849310  23.1619310  56.9259310  45.8249310  18.4289310  74.2049310
  45.8859310  18.0819310  73.3149310  44.8849310  18.4769310  74.3789310
  45.7119310  18.3909310  74.1129310  36.2119310  30.4769310  69.5629310
  35.6419310  31.1639310  69.9099310  35.7599310  29.6609310  69.7769310
  36.0809310  30.4609310  69.6349310  42.8039310  32.0579310  60.6539310
  42.1189310  31.9859310  61.3189310  43.6019310  32.2359310  61.1509310
  42.8179310  32.0709310  60.8029310  40.5149310  17.6819310  61.6359310
  40.2899310  18.4669310  62.1349310  41.4139310  17.8339310  61.3439310
  40.6019310  17.8019310  61.6629310  45.9419310  17.4019310  66.5059310
  46.8129310  17.0089310  66.5629310  45.8429310  17.6329310  65.5829310
  46.0409310  17.3809310  66.3949310  42.8499310  17.6689310  71.6399310
  42.5899310  16.8929310  71.1429310  43.8059310  17.6739310  71.5919310
  42.9389310  17.5699310  71.5699310  45.9669310  21.2669310  61.7539310
  45.7459310  21.0169310  62.6519310  46.7829310  20.8009310  61.5709310
  46.0429310  21.1749310  61.8459310  43.8129310  31.0299310  56.9009310
  43.4129310  31.8979310  56.9509310  43.3369310  30.5089310  57.5479310
  43.7009310  31.0749310  56.9899310  39.7699310  19.8169310  66.9209310
  38.9189310  19.3859310  66.8339310  39.8689310  19.9639310  67.8619310
  39.6729310  19.7809310  67.0299310  37.1919310  29.3509310  62.7569310
  36.5559310  28.8959310  63.3079310  36.7039310  30.0849310  62.3839310
  37.0489310  29.3869310  62.7799310  43.0699310  31.0219310  70.9619310
  42.8669310  30.7119310  71.8439310  43.5839310  30.3139310  70.5719310
  43.1099310  30.8909310  71.0249310  48.6579310  21.2909310  59.5899310
  47.8349310  20.8039310  59.5419310  48.4059310  22.1549310  59.9179310
  48.5209310  21.3389310  59.6259310  45.7149310  28.6239310  73.6089310
  45.0749310  28.0909310  74.0809310  45.6769310  28.3009310  72.7079310
  45.6279310  28.5139310  73.5539310  39.4819310  30.9919310  73.7439310
  39.0949310  30.6269310  72.9479310  38.8339310  31.6209310  74.0589310
  39.3489310  31.0249310  73.6829310  31.8419310  30.3459310  71.1129310
  31.4599310  31.1889310  71.3569310  32.6659310  30.5719310  70.6819310
  31.8979310  30.4829310  71.0889310  33.7449310  19.9719310  66.5349310
  33.6509310  19.5049310  65.7049310  34.5679310  19.6489310  66.8999310
  33.8379310  19.8709310  66.4759310  48.3819310  26.4609310  71.4259310
  47.4909310  26.6769310  71.7039310  48.6589310  27.2139310  70.9039310
  48.3029310  26.5849310  71.3949310  47.4499310  28.4829310  61.8579310
  47.4719310  28.5989310  62.8079310  47.6229310  29.3559310  61.5069310
  47.4749310  28.6099310  61.9349310  46.8249310  34.4229310  62.1649310
  46.5609310  34.3879310  61.2459310  47.4469310  33.7019310  62.2639310
  46.8709310  34.3259310  62.0599310  43.9989310  34.4189310  59.6759310
  43.4829310  33.7339310  60.1019310  43.5159310  35.2259310  59.8499310
  43.8709310  34.4339310  59.7529310  35.9079310  19.2299310  67.7909310
  36.3599310  18.6509310  68.4049310  36.4709310  19.2449310  67.0179310
  36.0379310  19.1579310  67.7709310  32.4899310  22.3299310  72.0599310
  31.9239310  22.6909310  71.3779310  31.9939310  22.4459310  72.8699310
  32.3539310  22.3909310  72.0759310  43.7359310  35.9619310  67.9769310
  44.5109310  35.8059310  67.4379310  43.7049310  36.9129310  68.0829310
  43.8309310  36.0639310  67.9219310  40.3059310  32.3739310  62.2059310
  40.0679310  31.5609310  62.6499310  39.5009310  32.6519310  61.7689310
  40.1729310  32.3059310  62.2069310  45.4989310  31.7939310  73.5129310
  45.7689310  30.8899310  73.6729310  44.5469310  31.7809310  73.6139310
  45.4119310  31.6769310  73.5469310  45.8089310  27.4999310  71.2099310
  45.1989310  26.7639310  71.2659310  45.3769310  28.1239310  70.6269310
  45.6759310  27.4849310  71.1429310  34.9069310  28.0879310  69.6349310
  34.4459310  28.4319310  68.8699310  34.9879310  27.1499310  69.4629310
  34.8579310  28.0119310  69.5149310  33.1029310  25.7289310  61.8199310
  34.0589310  25.7609310  61.8469310  32.8319310  26.6459310  61.8579310
  33.1909310  25.8499310  61.8279310  34.4619310  19.0189310  59.7909310
  34.7699310  19.0839310  60.6949310  33.5439310  18.7609310  59.8699310
  34.3839310  18.9939310  59.9169310  43.7709310  23.2799310  62.1749310
  44.3909310  23.7239310  61.5959310  42.9609310  23.7839310  62.0899310
  43.7469310  23.4019310  62.0899310  36.0629310  31.4159310  61.4069310
  35.3629310  31.8139310  60.8899310  36.4949310  30.8129310  60.8009310
  36.0289310  31.3899310  61.2629310  44.6639310  29.3589310  69.2289310
  44.4909310  29.2819310  68.2909310  45.4469310  29.9059310  69.2839310
  44.7419310  29.4189310  69.1159310  39.4819310  25.7429310  63.5479310
  39.9959310  25.1429310  63.0079310  39.2079310  26.4329310  62.9439310
  39.5119310  25.7539310  63.4019310  46.5099310  34.3099310  72.8389310
  46.9189310  34.4819310  73.6869310  46.2409310  33.3929310  72.8839310
  46.5279310  34.2149310  72.9529310  45.5239310  18.9719310  71.1069310
  45.2369310  19.7979310  71.4979310  45.3009310  19.0559310  70.1799310
  45.4579310  19.0889310  71.0389310  49.1769310  33.6019310  59.8369310
  49.7639310  33.4249310  59.1019310  48.5859310  34.2819310  59.5129310
  49.1759310  33.6659310  59.7009310  49.5389310  20.3079310  63.5929310
  50.1209310  20.7929310  63.0069310  48.9729310  20.9779310  63.9759310
  49.5409310  20.4559310  63.5669310  37.2579310  19.1269310  65.4589310
  37.0799310  19.7169310  64.7269310  37.7429310  18.3999310  65.0689310
  37.2969310  19.1099310  65.3159310  30.8629310  25.7169310  64.0359310
  31.4599310  25.9729310  63.3319310  31.1659310  26.2119310  64.7979310
  30.9779310  25.8129310  64.0429310  33.5439310  29.2239310  67.8409310
  33.8029310  29.9169310  67.2329310  32.6719310  29.4829310  68.1399310
  33.4659310  29.3459310  67.8009310  47.2319310  26.8139310  64.8219310
  48.0849310  26.4729310  64.5519310  47.2539310  26.7849310  65.7779310
  47.3439310  26.7659310  64.9089310  40.1619310  23.7249310  72.7269310
  39.4079310  23.3949310  72.2379310  39.9609310  23.5269310  73.6409310
  40.0399310  23.6569310  72.7809310  49.3079310  16.8399310  64.3299310
  48.7119310  16.4899310  64.9919310  50.0259310  16.2079310  64.2949310
  49.3239310  16.7149310  64.4099310  45.3779310  27.4849310  60.0369310
  45.7739310  27.8259310  60.8389310  45.8689310  27.9039310  59.3299310
  45.4909310  27.5819310  60.0489310  45.1069310  21.5709310  71.9989310
  45.7999310  21.7649310  72.6309310  44.4709310  22.2769310  72.1169310
  45.1139310  21.6859310  72.0949310  45.5719310  33.8409310  69.4739310
  45.0989310  34.6739310  69.4669310  45.0409310  33.2599310  68.9299310
  45.4429310  33.8729310  69.4039310  37.6839310  18.5119310  51.4579310
  37.9119310  18.4839310  52.3869310  37.0549310  17.7999310  51.3449310
  37.6329310  18.4169310  51.5629310  40.3519310  16.6849310  57.0949310
  41.2439310  16.4559310  56.8309310  39.8299310  16.5639310  56.3019310
  40.3999310  16.6409310  56.9599310  46.5799310  31.1979310  38.3979310
  45.7179310  31.5259310  38.1419310  46.4839310  30.2459310  38.3969310
  46.4569310  31.1179310  38.3649310  42.2369310  20.0739310  52.0849310
  42.4149310  19.1919310  52.4109310  42.5559310  20.6539310  52.7769310
  42.3009310  20.0349310  52.2159310  47.6769310  18.7019310  43.5839310
  47.7449310  17.7549310  43.4599310  48.5459310  18.9669310  43.8849310
  47.7969310  18.6149310  43.6069310  46.7209310  28.4979310  38.6229310
  46.7629310  28.3639310  37.6759310  47.6069310  28.7649310  38.8659310
  46.8399310  28.5149310  38.5329310  47.0639310  18.9279310  40.7109310
  47.1959310  18.7839310  41.6479310  46.1959310  19.3269310  40.6509310
  46.9699310  18.9599310  40.8239310  42.2929310  22.1299310  54.0009310
  42.8789310  22.4429310  54.6899310  41.5669310  22.7549310  54.0009310
  42.2749310  22.2499310  54.0889310  42.1849310  19.0249310  46.6619310
  41.2329310  18.9619310  46.7329310  42.5129310  18.2969310  47.1899310
  42.1049310  18.9239310  46.7389310  34.8599310  32.4509310  54.8619310
  34.6079310  33.3549310  55.0529310  35.7649310  32.3859310  55.1649310
  34.9439310  32.5589310  54.9249310  36.8929310  17.5239310  38.5129310
  37.2349310  17.5329310  39.4069310  36.4079310  18.3459310  38.4349310
  36.8749310  17.6309310  38.6169310  48.1579310  19.6529310  55.5069310
  47.2589310  19.3249310  55.5019310  48.4829310  19.4759310  54.6249310
  48.0839310  19.5879310  55.3939310  46.5919310  16.1739310  40.3809310
  46.7199310  17.0889310  40.1289310  45.6429310  16.0789310  40.4659310
  46.4869310  16.2789310  40.3599310  49.7669310  17.5119310  38.3819310
  49.5909310  18.3529310  37.9609310  48.9579310  17.0129310  38.2679310
  49.6409310  17.5559310  38.3139310  52.3359310  23.4399310  45.7599310
  52.3499310  23.1269310  46.6649310  52.2869310  24.3929310  45.8369310
  52.3319310  23.5219310  45.8859310  48.1949310  18.8909310  52.9379310
  47.3289310  18.7269310  52.5669310  48.7769310  18.2989310  52.4599310
  48.1589310  18.7939310  52.8289310  35.0869310  19.5579310  56.4899310
  34.9339310  19.8379310  55.5879310  34.8499310  20.3179310  57.0209310
  35.0369310  19.6909310  56.4429310  37.6069310  17.4039310  41.2639310
  37.8519310  16.5289310  41.5649310  37.3919310  17.8809310  42.0649310
  37.6109310  17.3529310  41.4049310  47.6039310  13.6059310  48.1519310
  47.7499310  14.0109310  49.0069310  46.6589310  13.6739310  48.0129310
  47.5019310  13.6659310  48.2439310  42.5699310  18.2979310  40.5789310
  41.8109310  18.5459310  40.0509310  43.1249310  19.0779310  40.5799310
  42.5439310  18.4299310  40.5119310  44.6919310  17.4819310  45.0919310
  44.0299310  17.8879310  44.5319310  45.3869310  17.2189310  44.4889310
  44.6959310  17.5009310  44.9429310  47.3579310  16.2429310  56.6709310
  46.8169310  15.7279310  57.2689310  46.8939310  17.0759310  56.5839310
  47.2299310  16.2839310  56.7369310  37.5779310  19.5989310  43.0059310
  37.4299310  20.5419310  42.9279310  36.7859310  19.2669310  43.4299310
  37.4579310  19.6769310  43.0499310  41.2289310  19.9429310  55.4249310
  40.7629310  20.5409310  56.0089310  41.8239310  20.5069310  54.9299310
  41.2449310  20.0909310  55.4359310  36.8339310  20.0879310  39.6009310
  35.9169310  19.8729310  39.7669310  37.3089310  19.6999310  40.3359310
  36.7769310  20.0109310  39.7159310  42.7399310  17.8309310  55.5209310
  42.7369310  17.5409310  54.6089310  42.0679310  18.5119310  55.5579310
  42.6529310  17.8809310  55.4089310  46.7999310  21.9689310  55.1499310
  47.5129310  21.3369310  55.2449310  47.2399310  22.8059310  55.0039310
  46.9469310  21.9949310  55.1429310  37.1089310  16.5649310  44.4139310
  36.7039310  16.2339310  45.2159310  37.2159310  15.7909310  43.8619310
  37.0709310  16.4239310  44.4459310  39.7969310  19.5079310  44.6849310
  38.9449310  19.3699310  44.2729310  39.8469310  20.4549310  44.8209310
  39.6949310  19.6119310  44.6499310  45.8249310  18.4289310  55.3449310
  45.8859310  18.0819310  54.4549310  44.8849310  18.4769310  55.5189310
  45.7119310  18.3909310  55.2529310  40.5149310  17.6819310  42.7759310
  40.2899310  18.4669310  43.2749310  41.4139310  17.8339310  42.4839310
  40.6019310  17.8019310  42.8029310  45.9419310  17.4019310  47.6459310
  46.8129310  17.0089310  47.7029310  45.8429310  17.6329310  46.7229310
  46.0409310  17.3809310  47.5349310  42.8499310  17.6689310  52.7799310
  42.5899310  16.8929310  52.2829310  43.8059310  17.6739310  52.7319310
  42.9389310  17.5699310  52.7099310  38.4009310  16.8379310  55.2119310
  37.8479310  17.1489310  55.9279310  38.4619310  17.5839310  54.6149310
  38.3379310  16.9729310  55.2269310  37.9429310  21.1879310  55.9029310
  37.1779310  20.7909310  56.3209310  37.6889310  22.0989310  55.7549310
  37.8119310  21.2539310  55.9379310  45.5239310  18.9719310  52.2469310
  45.2369310  19.7979310  52.6379310  45.3009310  19.0559310  51.3199310
  45.4579310  19.0889310  52.1789310  49.0169310  31.9569310  55.9719310
  48.2449310  31.9879310  56.5359310  49.6339310  32.5669310  56.3779310
  48.9969310  32.0389310  56.0969310  49.5389310  20.3079310  44.7329310
  50.1209310  20.7929310  44.1469310  48.9729310  20.9779310  45.1159310
  49.5409310  20.4559310  44.7069310  37.2579310  19.1269310  46.5989310
  37.0799310  19.7169310  45.8669310  37.7429310  18.3999310  46.2089310
  37.2969310  19.1099310  46.4559310  40.1619310  23.7249310  53.8669310
  39.4079310  23.3949310  53.3779310  39.9609310  23.5269310  54.7809310
  40.0399310  23.6569310  53.9209310  43.7119310  23.0479310  55.9359310
  42.9279310  23.0089310  56.4839310  44.3489310  22.4969310  56.3899310
  43.6929310  22.9729310  56.0639310  49.3079310  16.8399310  45.4699310
  48.7119310  16.4899310  46.1319310  50.0259310  16.2079310  45.4349310
  49.3239310  16.7149310  45.5499310  35.0829310  32.6979310  32.8579310
  34.1289310  32.6299310  32.8259310  35.2719310  33.0049310  33.7439310
  34.9849310  32.7289310  32.9669310  35.5999310  16.7979310  32.1039310
  35.0399310  17.2459310  32.7379310  35.4539310  15.8669310  32.2709310
  35.5099310  16.7359310  32.2059310  36.4189310  25.0389310  21.3519310
  36.2649310  25.4959310  22.1789310  37.1309310  24.4289310  21.5439310
  36.4899310  25.0189310  21.4819310  39.8139310  20.2479310  31.9569310
  39.2109310  19.6069310  32.3319310  40.6029310  20.1789310  32.4949310
  39.8379310  20.1579310  32.0739310  40.3519310  16.6849310  38.2349310
  41.2439310  16.4559310  37.9709310  39.8299310  16.5639310  37.4419310
  40.3999310  16.6409310  38.0999310  46.5799310  31.1979310  19.5379310
  45.7179310  31.5259310  19.2819310  46.4839310  30.2459310  19.5369310
  46.4569310  31.1179310  19.5049310  33.3059310  31.2949310  26.3149310
  33.3439310  32.1879310  25.9709310  32.5069310  31.2739310  26.8409310
  33.2089310  31.4069310  26.3379310  38.0169310  33.0849310  23.0039310
  37.2179310  32.5579310  23.0139310  38.3609310  32.9819310  22.1169310
  37.9589310  33.0039310  22.8919310  41.9249310  28.0699310  25.4709310
  41.4989310  27.4629310  24.8669310  41.2619310  28.7369310  25.6489310
  41.7859310  28.0779310  25.4169310  47.6769310  18.7019310  24.7239310
  47.7449310  17.7549310  24.5999310  48.5459310  18.9669310  25.0249310
  47.7969310  18.6149310  24.7469310  48.7959310  22.9929310  26.5649310
  48.0169310  23.1029310  27.1099310  49.1399310  23.8789310  26.4559310
  48.7399310  23.1199310  26.6209310  39.8919310  19.1209310  20.7129310
  39.6259310  18.6579310  21.5079310  39.9079310  18.4439310  20.0369310
  39.8599310  18.9749310  20.7289310  48.7389310  26.8979310  22.7459310
  48.3729310  27.5389310  23.3559310  47.9739310  26.4759310  22.3539310
  48.5939310  26.9259310  22.7739310  46.7209310  28.4979310  19.7629310
  46.7629310  28.3639310  18.8159310  47.6069310  28.7649310  20.0059310
  46.8399310  28.5149310  19.6729310  47.0639310  18.9279310  21.8509310
  47.1959310  18.7839310  22.7879310  46.1959310  19.3269310  21.7909310
  46.9699310  18.9599310  21.9639310  35.8259310  21.2449310  26.1239310
  35.4189310  21.2439310  25.2569310  35.3399310  21.9079310  26.6149310
  35.7119310  21.3299310  26.0759310  33.9449310  17.6409310  34.1419310
  34.1519310  18.5389310  34.3989310  33.5889310  17.2399310  34.9349310
  33.9259310  17.7039310  34.2759310  35.2529310  18.4319310  24.8419310
  34.4949310  18.4189310  25.4269310  35.7849310  17.6879310  25.1229310
  35.2239310  18.3349310  24.9529310  39.9129310  22.6309310  24.6729310
  39.0879310  22.6129310  24.1879310  39.6619310  22.4449310  25.5779310
  39.7749310  22.6049310  24.7269310  34.7379310  24.2529310  19.3429310
  34.1349310  24.9899310  19.2469310  35.3669310  24.5429310  20.0039310
  34.7409310  24.3839310  19.4149310  39.1649310  32.7149310  20.6359310
  39.6239310  31.8929310  20.8079310  39.8629310  33.3549310  20.4969310
  39.3129310  32.6919310  20.6399310  37.8879310  23.2059310  29.6179310
  38.7689310  23.4979310  29.8499310  37.9739310  22.8719310  28.7249310
  38.0119310  23.2009310  29.5329310  42.1849310  19.0249310  27.8019310
  41.2329310  18.9619310  27.8729310  42.5129310  18.2969310  28.3299310
  42.1049310  18.9239310  27.8789310  47.3139310  27.0329310  29.9239310
  47.7539310  27.5399310  30.6069310  46.6419310  26.5359310  30.3899310
  47.2849310  27.0339310  30.0709310  48.5289310  28.8009310  32.1519310
  47.8149310  29.4059310  31.9529310  49.2449310  29.3639310  32.4489310
  48.5299310  28.9499310  32.1649310  42.0409310  29.8619310  21.0899310
  42.3449310  28.9689310  21.2459310  42.5679310  30.4019310  21.6789310
  42.1469310  29.8169310  21.1849310  44.6639310  20.3499310  21.6659310
  44.7679310  20.6939310  22.5529310  44.5339310  21.1259310  21.1209310
  44.6609310  20.4929310  21.7099310  47.3059310  21.1979310  28.9929310
  48.2179310  21.2089310  29.2859310  47.3059310  20.6129310  28.2349310
  47.4229310  21.1239310  28.9339310  36.8929310  17.5239310  19.6529310
  37.2349310  17.5329310  20.5469310  36.4079310  18.3459310  19.5749310
  36.8749310  17.6309310  19.7569310  32.0619310  17.4399310  29.5569310
  32.8959310  17.8939310  29.4329310  31.4739310  17.8389310  28.9169310
  32.0939310  17.5489310  29.4599310  39.4959310  22.0349310  27.3069310
  39.5819310  21.2509310  27.8499310  39.9359310  22.7219310  27.8069310
  39.5629310  22.0229310  27.4399310  48.1579310  19.6529310  36.6469310
  47.2589310  19.3249310  36.6419310  48.4829310  19.4759310  35.7649310
  48.0839310  19.5879310  36.5339310  48.1739310  30.7749310  22.6429310
  48.2949310  31.6499310  22.2749310  48.3829310  30.1809310  21.9219310
  48.2159310  30.8109310  22.5029310  46.5919310  16.1739310  21.5209310
  46.7199310  17.0889310  21.2689310  45.6429310  16.0789310  21.6059310
  46.4869310  16.2789310  21.4999310  32.5709310  34.2569310  23.8259310
  31.7899310  34.1259310  23.2879310  32.5409310  35.1819310  24.0699310
  32.4669310  34.3589310  23.7879310  49.7669310  17.5119310  19.5219310
  49.5909310  18.3529310  19.1009310  48.9579310  17.0129310  19.4079310
  49.6409310  17.5559310  19.4539310  52.3359310  23.4399310  26.8999310
  52.3499310  23.1269310  27.8049310  52.2869310  24.3929310  26.9769310
  52.3319310  23.5219310  27.0259310  41.7289310  21.3759310  20.7829310
  41.1029310  20.6519310  20.8069310  41.9469310  21.5349310  21.7009310
  41.6769310  21.3039310  20.9029310  34.3019310  32.7819310  22.3599310
  33.7199310  33.2799310  22.9329310  34.5309310  33.3929310  21.6599310
  34.2569310  32.9239310  22.3439310  48.1949310  18.8909310  34.0779310
  47.3289310  18.7269310  33.7069310  48.7769310  18.2989310  33.5999310
  48.1589310  18.7939310  33.9689310  47.9009310  24.3409310  20.7839310
  47.4439310  24.0999310  21.5899310  48.8269310  24.2009310  20.9829310
  47.9609310  24.2919310  20.9129310  46.6449310  30.9609310  32.6219310
  46.2939310  30.8579310  33.5069310  46.7929310  31.9029310  32.5319310
  46.6189310  31.0679310  32.7239310  46.0259310  20.0579310  26.3719310
  46.7219310  19.6719310  25.8389310  45.4159310  19.3359310  26.5269310
  46.0369310  19.9159310  26.3229310  41.9269310  21.4939310  23.4469310
  41.1039310  21.7769310  23.8429310  42.6049310  21.8799310  24.0019310
  41.9089310  21.5789310  23.5689310  34.9389310  25.0849310  31.5399310
  34.5619310  24.9579310  32.4099310  34.3759310  24.5739310  30.9579310
  34.8189310  25.0039310  31.5769310  43.9459310  26.5949310  26.9949310
  44.4909310  27.0959310  27.6019310  43.2519310  27.2019310  26.7379310
  43.9269310  26.7359310  27.0399310  46.6499310  23.8409310  23.1879310
  46.6069310  24.4599310  23.9179310  46.2839310  23.0299310  23.5399310
  46.5979310  23.8169310  23.3269310  41.3999310  24.7049310  23.6669310
  40.7279310  24.0239310  23.6969310  41.4789310  24.9219310  22.7379310
  41.3239310  24.6459310  23.5519310  36.0649310  22.0059310  31.5819310
  35.4749310  21.2669310  31.4299310  36.6769310  21.9779310  30.8469310
  36.0679310  21.9079310  31.4679310  31.0329310  23.9529310  23.4329310
  31.6979310  24.5529310  23.7709310  30.2009310  24.3869310  23.6219310
  31.0119310  24.0849310  23.5009310  33.3659310  28.3979310  25.6349310
  34.0449310  28.1179310  26.2489310  33.4639310  29.3479310  25.5859310
  33.4649310  28.4839310  25.7079310  38.7799310  27.1339310  20.7219310
  38.3969310  26.8249310  19.9009310  39.0189310  28.0449310  20.5469310
  38.7619310  27.2109310  20.5949310  33.0359310  18.5889310  26.3999310
  32.7979310  17.7699310  25.9659310  32.2749310  19.1569310  26.2729310
  32.9079310  18.5569310  26.3279310  37.6069310  17.4039310  22.4039310
  37.8519310  16.5289310  22.7049310  37.3919310  17.8809310  23.2049310
  37.6109310  17.3529310  22.5449310  42.8389310  19.1529310  24.9419310
  42.5449310  19.8679310  24.3779310  42.5679310  19.4139310  25.8219310
  42.7669310  19.2779310  24.9819310  46.7919310  29.7049310  26.6429310
  45.8769310  29.7149310  26.3599310  46.9139310  28.8369310  27.0279310
  46.6899310  29.5949310  26.6559310  34.4449310  21.6689310  20.4379310
  33.5199310  21.4259310  20.4759310  34.4409310  22.5889310  20.1729310
  34.3269310  21.7559310  20.4089310  36.4139310  26.0219310  23.7269310
  37.2369310  26.5079310  23.6889310  36.4649310  25.5269310  24.5439310
  36.5259310  26.0209310  23.8259310  33.1049310  33.8969310  27.8029310
  32.5629310  34.3199310  28.4699310  34.0039310  34.0939310  28.0649310
  33.1499310  33.9769310  27.9219310  38.7089310  27.6589310  23.7289310
  38.1859310  28.3619310  24.1149310  38.7209310  27.8549310  22.7929310
  38.6439310  27.7739310  23.6589310  45.7519310  22.5259310  19.8929310
  46.2299310  22.1729310  19.1439310  46.2539310  23.2979310  20.1559310
  45.8769310  22.5799310  19.8309310  32.2919310  31.7139310  30.0409310
  32.9469310  32.0749310  29.4439310  31.6139310  31.3589310  29.4659310
  32.2889310  31.7149310  29.8909310  47.6039310  13.6059310  29.2919310
  47.7499310  14.0109310  30.1469310  46.6589310  13.6739310  29.1529310
  47.5019310  13.6659310  29.3839310  43.6919310  23.7409310  27.0059310
  44.1899310  23.5339310  26.2149310  43.8759310  24.6659310  27.1699310
  43.7789310  23.8329310  26.9259310  38.3169310  22.4869310  20.7469310
  37.8359310  21.6699310  20.6159310  38.7509310  22.6459310  19.9089310
  38.3109310  22.4029310  20.6229310  32.2809310  27.5239310  21.2049310
  33.0479310  27.2009310  21.6799310  31.5389310  27.2849310  21.7599310
  32.2839310  27.4519310  21.3369310  31.6189310  21.2799310  29.9009310
  32.4169310  20.9299310  29.5059310  31.5989310  20.8999310  30.7789310
  31.7179310  21.1859310  29.9629310  45.5499310  25.5759310  25.1109310
  46.2239310  25.9879310  25.6509310  44.7399310  26.0219310  25.3569310
  45.5329310  25.6859310  25.2109310  33.7039310  26.0669310  28.6139310
  34.6609310  26.0509310  28.5949310  33.4589310  25.2529310  29.0539310
  33.7949310  25.9609310  28.6679310  44.0069310  20.0769310  31.1529310
  43.5529310  20.5189310  30.4349310  43.4649310  20.2519310  31.9219310
  43.8799310  20.1559310  31.1589310  49.1719310  25.0049310  30.0969310
  48.7829310  24.5309310  30.8329310  48.6369310  25.7939310  30.0109310
  49.0539310  25.0449310  30.1799310  42.5459310  21.5529310  28.9629310
  43.1719310  22.0029310  28.3959310  42.4039310  20.7059310  28.5389310
  42.6079310  21.5019310  28.8359310  42.5699310  18.2979310  21.7189310
  41.8109310  18.5459310  21.1909310  43.1249310  19.0779310  21.7199310
  42.5439310  18.4299310  21.6519310  35.1049310  21.5909310  23.4359310
  35.0149310  21.3199310  22.5229310  34.2069310  21.7479310  23.7289310
  34.9779310  21.5769310  23.3569310  44.6919310  17.4819310  26.2319310
  44.0299310  17.8879310  25.6719310  45.3869310  17.2189310  25.6289310
  44.6959310  17.5009310  26.0829310  46.3049310  22.7139310  31.6109310
  46.0399310  22.0619310  32.2609310  46.5239310  22.2009310  30.8329310
  46.2989310  22.5649310  31.5949310  37.0509310  24.5069310  25.8359310
  37.2389310  23.7549310  25.2739310  37.9069310  24.8979310  26.0059310
  37.1839310  24.4609310  25.7859310  35.6979310  16.3769310  27.9949310
  35.8689310  17.2979310  28.1939310  36.2639310  15.8929310  28.5959310
  35.7919310  16.4329310  28.0969310  39.5009310  29.7139310  20.1189310
  40.3449310  29.6759310  20.5699310  39.7239310  29.9189310  19.2109310
  39.6379310  29.7349310  20.0609310  36.5519310  25.5039310  28.3879310
  36.8089310  25.0859310  27.5659310  36.6359310  24.8119310  29.0439310
  36.5959310  25.3619310  28.3669310  47.3579310  16.2429310  37.8109310
  46.8169310  15.7279310  38.4089310  46.8939310  17.0759310  37.7239310
  47.2299310  16.2839310  37.8769310  42.8419310  33.6079310  19.2759310
  42.9999310  34.4469310  18.8429310  43.1039310  33.7549310  20.1849310
  42.8959310  33.7339310  19.3369310  48.7269310  23.7939310  33.0089310
  47.8309310  23.4689310  32.9219310  48.6269310  24.6889310  33.3339310
  48.5989310  23.8669310  33.0399310  40.9229310  25.4809310  21.0469310
  41.6529310  26.1009310  21.0359310  40.1409310  26.0319310  21.0159310
  40.9159310  25.6309310  21.0409310  37.5779310  19.5989310  24.1459310
  37.4299310  20.5419310  24.0679310  36.7859310  19.2669310  24.5699310
  37.4579310  19.6769310  24.1899310  36.8339310  20.0879310  20.7409310
  35.9169310  19.8729310  20.9069310  37.3089310  19.6999310  21.4759310
  36.7769310  20.0109310  20.8559310  44.4359310  32.8389310  24.9759310
  44.0679310  33.4199310  25.6409310  45.3269310  33.1619310  24.8419310
  44.5029310  32.9549310  25.0439310  31.6239310  17.7429310  32.5939310
  32.4859310  17.7039310  33.0079310  31.8099310  17.8929310  31.6669310
  31.7579310  17.7569310  32.5279310  32.4389310  21.8149310  24.6239310
  32.8389310  22.3999310  25.2679310  31.9749310  22.3999310  24.0249310
  32.4309310  21.9649310  24.6299310  42.7399310  17.8309310  36.6609310
  42.7369310  17.5409310  35.7489310  42.0679310  18.5119310  36.6979310
  42.6529310  17.8809310  36.5489310  34.3989310  16.4939310  20.6689310
  34.3999310  17.2359310  21.2729310  34.9029310  16.7979310  19.9149310
  34.4639310  16.6279310  20.6499310  35.3149310  28.5299310  20.9529310
  35.4009310  28.4789310  20.0009310  34.7619310  29.2979310  21.1019310
  35.2549310  28.6219310  20.8499310  32.8289310  23.7509310  29.8119310
  32.0499310  24.2569310  30.0429310  32.5669310  22.8379310  29.9349310
  32.6959310  23.6989310  29.8569310  35.9249310  27.9079310  26.9179310
  35.8379310  28.6879310  27.4669310  35.9969310  27.1839310  27.5409310
  35.9229310  27.9149310  27.0679310  31.5559310  18.9919310  22.1229310
  31.4989310  18.7379310  21.2019310  31.0079310  19.7739310  22.1909310
  31.4789310  19.0599310  22.0139310  36.0269310  23.0489310  34.1019310
  35.9359310  22.9289310  33.1569310  35.3029310  23.6269310  34.3399310
  35.9229310  23.1079310  34.0109310  37.1089310  16.5649310  25.5539310
  36.7039310  16.2339310  26.3559310  37.2159310  15.7909310  25.0019310
  37.0709310  16.4239310  25.5859310  48.1939310  32.0239310  25.2939310
  48.2639310  31.3949310  26.0109310  48.2599310  31.4919310  24.5009310
  48.2109310  31.8759310  25.2839310  37.6519310  22.6109310  23.4399310
  38.0249310  22.5459310  22.5609310  36.7469310  22.3149310  23.3389310
  37.5839310  22.5639310  23.3149310  37.3509310  29.7679310  21.8739310
  36.6189310  29.2789310  21.4979310  38.0109310  29.7809310  21.1819310
  37.3409310  29.7069310  21.7379310  39.7969310  19.5079310  25.8249310
  38.9449310  19.3699310  25.4129310  39.8469310  20.4549310  25.9609310
  39.6949310  19.6119310  25.7899310  34.6689310  20.1759310  35.0159310
  35.4599310  20.2089310  34.4789310  34.3089310  21.0619310  34.9679310
  34.7239310  20.2929310  34.9409310  40.8419310  23.1789310  19.0639310
  40.8229310  23.8289310  19.7659310  41.1969310  22.3909310  19.4759310
  40.8849310  23.1619310  19.2059310  45.8249310  18.4289310  36.4849310
  45.8859310  18.0819310  35.5949310  44.8849310  18.4769310  36.6589310
  45.7119310  18.3909310  36.3929310  36.2119310  30.4769310  31.8429310
  35.6419310  31.1639310  32.1899310  35.7599310  29.6609310  32.0569310
  36.0809310  30.4609310  31.9149310  42.8039310  32.0579310  22.9339310
  42.1189310  31.9859310  23.5989310  43.6019310  32.2359310  23.4309310
  42.8179310  32.0709310  23.0829310  40.5149310  17.6819310  23.9159310
  40.2899310  18.4669310  24.4149310  41.4139310  17.8339310  23.6239310
  40.6019310  17.8019310  23.9429310  45.9419310  17.4019310  28.7859310
  46.8129310  17.0089310  28.8429310  45.8429310  17.6329310  27.8629310
  46.0409310  17.3809310  28.6749310  42.8499310  17.6689310  33.9199310
  42.5899310  16.8929310  33.4229310  43.8059310  17.6739310  33.8719310
  42.9389310  17.5699310  33.8499310  45.9669310  21.2669310  24.0339310
  45.7459310  21.0169310  24.9319310  46.7829310  20.8009310  23.8509310
  46.0429310  21.1749310  24.1259310  43.8129310  31.0299310  19.1809310
  43.4129310  31.8979310  19.2309310  43.3369310  30.5089310  19.8279310
  43.7009310  31.0749310  19.2699310  39.7699310  19.8169310  29.2009310
  38.9189310  19.3859310  29.1139310  39.8689310  19.9639310  30.1419310
  39.6729310  19.7809310  29.3099310  38.4009310  16.8379310  36.3519310
  37.8479310  17.1489310  37.0679310  38.4619310  17.5839310  35.7549310
  38.3379310  16.9729310  36.3669310  48.6579310  21.2909310  21.8699310
  47.8349310  20.8039310  21.8219310  48.4059310  22.1549310  22.1979310
  48.5209310  21.3389310  21.9059310  33.7449310  19.9719310  28.8149310
  33.6509310  19.5049310  27.9849310  34.5679310  19.6489310  29.1799310
  33.8379310  19.8709310  28.7559310  47.4499310  28.4829310  24.1379310
  47.4719310  28.5989310  25.0879310  47.6229310  29.3559310  23.7869310
  47.4749310  28.6099310  24.2149310  46.8249310  34.4229310  24.4449310
  46.5609310  34.3879310  23.5259310  47.4469310  33.7019310  24.5439310
  46.8709310  34.3259310  24.3399310  43.9989310  34.4189310  21.9559310
  43.4829310  33.7339310  22.3819310  43.5159310  35.2259310  22.1299310
  43.8709310  34.4339310  22.0329310  35.9079310  19.2299310  30.0709310
  36.3599310  18.6509310  30.6849310  36.4709310  19.2449310  29.2979310
  36.0379310  19.1579310  30.0509310  34.9069310  28.0879310  31.9149310
  34.4459310  28.4319310  31.1499310  34.9879310  27.1499310  31.7429310
  34.8579310  28.0119310  31.7949310  33.1029310  25.7289310  24.0999310
  34.0589310  25.7609310  24.1269310  32.8319310  26.6459310  24.1379310
  33.1909310  25.8499310  24.1079310  34.4619310  19.0189310  22.0709310
  34.7699310  19.0839310  22.9749310  33.5439310  18.7609310  22.1499310
  34.3839310  18.9939310  22.1969310  43.7709310  23.2799310  24.4549310
  44.3909310  23.7239310  23.8759310  42.9609310  23.7839310  24.3699310
  43.7469310  23.4019310  24.3699310  30.3909310  29.3319310  20.4159310
  31.0189310  28.8089310  20.9149310  30.8849310  29.6379310  19.6549310
  30.5349310  29.3039310  20.3829310  36.0629310  31.4159310  23.6869310
  35.3629310  31.8139310  23.1699310  36.4949310  30.8129310  23.0809310
  36.0289310  31.3899310  23.5429310  39.4819310  25.7429310  25.8279310
  39.9959310  25.1429310  25.2879310  39.2079310  26.4329310  25.2239310
  39.5119310  25.7539310  25.6819310  45.5239310  18.9719310  33.3869310
  45.2369310  19.7979310  33.7779310  45.3009310  19.0559310  32.4599310
  45.4579310  19.0889310  33.3189310  49.1769310  33.6019310  22.1169310
  49.7639310  33.4249310  21.3819310  48.5859310  34.2819310  21.7929310
  49.1759310  33.6659310  21.9809310  31.9689310  33.0979310  19.8739310
  32.5259310  32.3389310  20.0459310  32.5369310  33.8519310  20.0299310
  32.1129310  33.0969310  19.9159310  49.0169310  31.9569310  37.1119310
  48.2449310  31.9879310  37.6759310  49.6339310  32.5669310  37.5179310
  48.9969310  32.0389310  37.2369310  49.5389310  20.3079310  25.8729310
  50.1209310  20.7929310  25.2869310  48.9729310  20.9779310  26.2559310
  49.5409310  20.4559310  25.8469310  37.2579310  19.1269310  27.7389310
  37.0799310  19.7169310  27.0069310  37.7429310  18.3999310  27.3489310
  37.2969310  19.1099310  27.5959310  30.8629310  25.7169310  26.3159310
  31.4599310  25.9729310  25.6119310  31.1659310  26.2119310  27.0779310
  30.9779310  25.8129310  26.3229310  33.5439310  29.2239310  30.1209310
  33.8029310  29.9169310  29.5129310  32.6719310  29.4829310  30.4199310
  33.4659310  29.3459310  30.0809310  47.2319310  26.8139310  27.1019310
  48.0849310  26.4729310  26.8319310  47.2539310  26.7849310  28.0579310
  47.3439310  26.7659310  27.1889310  49.3079310  16.8399310  26.6099310
  48.7119310  16.4899310  27.2719310  50.0259310  16.2079310  26.5749310
  49.3239310  16.7149310  26.6899310  45.3779310  27.4849310  22.3169310
  45.7739310  27.8259310  23.1189310  45.8689310  27.9039310  21.6099310
  45.4909310  27.5819310  22.3289310  37.6839310  18.5119310  13.7379310
  37.9119310  18.4839310  14.6669310  37.0549310  17.7999310  13.6249310
  37.6329310  18.4169310  13.8429310  35.0829310  32.6979310  13.9979310
  34.1289310  32.6299310  13.9659310  35.2719310  33.0049310  14.8839310
  34.9849310  32.7289310  14.1069310  39.8479310  30.1419310   7.1609310
  39.6739310  30.3029310   8.0889310  39.0829310  29.6559310   6.8549310
  39.7279310  30.0999310   7.2409310  35.5999310  16.7979310  13.2439310
  35.0399310  17.2459310  13.8779310  35.4539310  15.8669310  13.4109310
  35.5099310  16.7359310  13.3459310  36.4189310  25.0389310   2.4919310
  36.2649310  25.4959310   3.3189310  37.1309310  24.4289310   2.6839310
  36.4899310  25.0189310   2.6219310  39.8139310  20.2479310  13.0969310
  39.2109310  19.6069310  13.4719310  40.6029310  20.1789310  13.6349310
  39.8379310  20.1579310  13.2139310  40.3519310  16.6849310  19.3749310
  41.2439310  16.4559310  19.1109310  39.8299310  16.5639310  18.5819310
  40.3999310  16.6409310  19.2399310  33.3059310  31.2949310   7.4549310
  33.3439310  32.1879310   7.1109310  32.5069310  31.2739310   7.9809310
  33.2089310  31.4069310   7.4779310  38.0169310  33.0849310   4.1439310
  37.2179310  32.5579310   4.1539310  38.3609310  32.9819310   3.2569310
  37.9589310  33.0039310   4.0319310  42.2369310  20.0739310  14.3649310
  42.4149310  19.1919310  14.6909310  42.5559310  20.6539310  15.0569310
  42.3009310  20.0349310  14.4959310  41.9249310  28.0699310   6.6109310
  41.4989310  27.4629310   6.0069310  41.2619310  28.7369310   6.7889310
  41.7859310  28.0779310   6.5569310  47.6769310  18.7019310   5.8639310
  47.7449310  17.7549310   5.7399310  48.5459310  18.9669310   6.1649310
  47.7969310  18.6149310   5.8869310  48.7959310  22.9929310   7.7049310
  48.0169310  23.1029310   8.2499310  49.1399310  23.8789310   7.5959310
  48.7399310  23.1199310   7.7609310  40.1269310  26.3089310  15.1369310
  39.9989310  25.4439310  15.5259310  40.5699310  26.1339310  14.3059310
  40.1669310  26.1759310  15.0799310  48.7389310  26.8979310   3.8859310
  48.3729310  27.5389310   4.4959310  47.9739310  26.4759310   3.4939310
  48.5939310  26.9259310   3.9139310  31.2509310  20.6389310  13.6939310
  31.5279310  21.2079310  14.4119310  30.6489310  20.0159310  14.1009310
  31.2099310  20.6319310  13.8379310  32.1239310  26.9759310  16.2869310
  31.2029310  26.7559310  16.1469310  32.2039310  27.0829310  17.2339310
  32.0159310  26.9609310  16.3899310  47.0639310  18.9279310   2.9909310
  47.1959310  18.7839310   3.9279310  46.1959310  19.3269310   2.9309310
  46.9699310  18.9599310   3.1039310  43.7139310  30.6649310   7.4919310
  43.8899310  31.5149310   7.0889310  42.9549310  30.3279310   7.0179310
  43.6399310  30.7309310   7.3799310  43.5039310  33.9899310   8.7439310
  44.0899310  34.7269310   8.5689310  42.7219310  34.1759310   8.2249310
  43.4789310  34.1079310   8.6549310  35.8259310  21.2449310   7.2639310
  35.4189310  21.2439310   6.3969310  35.3399310  21.9079310   7.7549310
  35.7119310  21.3299310   7.2159310  33.9449310  17.6409310  15.2819310
  34.1519310  18.5389310  15.5389310  33.5889310  17.2399310  16.0749310
  33.9259310  17.7039310  15.4159310  35.2529310  18.4319310   5.9819310
  34.4949310  18.4189310   6.5669310  35.7849310  17.6879310   6.2629310
  35.2239310  18.3349310   6.0929310  42.2929310  22.1299310  16.2809310
  42.8789310  22.4429310  16.9699310  41.5669310  22.7549310  16.2809310
  42.2749310  22.2499310  16.3689310  39.9129310  22.6309310   5.8129310
  39.0879310  22.6129310   5.3279310  39.6619310  22.4449310   6.7179310
  39.7749310  22.6049310   5.8669310  37.0269310  32.2959310  10.4299310
  36.7659310  31.9209310  11.2709310  37.7579310  31.7509310  10.1409310
  37.0869310  32.1779310  10.4999310  35.2649310  30.4889310   9.1449310
  34.5409310  30.7919310   8.5969310  35.8589310  31.2389310   9.1929310
  35.2489310  30.6239310   9.0809310  31.8139310  20.6429310  19.3349310
  31.6159310  20.7239310  18.4029310  31.0199310  20.9459310  19.7759310
  31.6869310  20.6919310  19.2719310  39.1649310  32.7149310   1.7759310
  39.6239310  31.8929310   1.9479310  39.8629310  33.3549310   1.6369310
  39.3129310  32.6919310   1.7799310  37.8879310  23.2059310  10.7579310
  38.7689310  23.4979310  10.9899310  37.9739310  22.8719310   9.8649310
  38.0119310  23.2009310  10.6729310  31.7819310  29.6689310  18.0919310
  31.0199310  30.2369310  17.9749310  31.9869310  29.3589310  17.2099310
  31.7099310  29.7019310  17.9639310  33.8529310  30.9639310  19.4289310
  34.3359310  31.5249310  18.8219310  33.4099310  30.3279310  18.8679310
  33.8579310  30.9549310  19.2799310  37.4789310  32.6999310  18.2269310
  38.0529310  32.6129310  18.9879310  37.4369310  33.6419310  18.0649310
  37.5469310  32.8089310  18.3029310  42.1849310  19.0249310   8.9419310
  41.2329310  18.9619310   9.0129310  42.5129310  18.2969310   9.4699310
  42.1049310  18.9239310   9.0189310  47.3139310  27.0329310  11.0639310
  47.7539310  27.5399310  11.7469310  46.6419310  26.5359310  11.5299310
  47.2849310  27.0339310  11.2109310  48.5289310  28.8009310  13.2919310
  47.8149310  29.4059310  13.0929310  49.2449310  29.3639310  13.5889310
  48.5299310  28.9499310  13.3049310  37.8339310  26.5539310  18.1279310
  37.6769310  25.6099310  18.0919310  37.7449310  26.8459310  17.2209310
  37.8019310  26.4699310  18.0069310  42.0409310  29.8619310   2.2299310
  42.3449310  28.9689310   2.3859310  42.5679310  30.4019310   2.8189310
  42.1469310  29.8169310   2.3249310  44.6639310  20.3499310   2.8059310
  44.7679310  20.6939310   3.6929310  44.5339310  21.1259310   2.2609310
  44.6609310  20.4929310   2.8499310  47.3059310  21.1979310  10.1329310
  48.2179310  21.2089310  10.4259310  47.3059310  20.6129310   9.3749310
  47.4229310  21.1239310  10.0739310  45.1509310  25.5349310  11.9839310
  44.2759310  25.2779310  11.6939310  45.5029310  24.7519310  12.4079310
  45.0839310  25.4019310  12.0009310  34.8599310  32.4509310  17.1419310
  34.6079310  33.3549310  17.3329310  35.7649310  32.3859310  17.4449310
  34.9439310  32.5589310  17.2049310  32.0619310  17.4399310  10.6969310
  32.8959310  17.8939310  10.5729310  31.4739310  17.8389310  10.0569310
  32.0939310  17.5489310  10.5999310  33.1609310  16.5729310  17.7089310
  32.3279310  16.1459310  17.9099310  33.1279310  17.3999310  18.1889310
  33.0499310  16.6239310  17.7959310  39.4959310  22.0349310   8.4469310
  39.5819310  21.2509310   8.9899310  39.9359310  22.7219310   8.9469310
  39.5629310  22.0229310   8.5799310  48.1579310  19.6529310  17.7869310
  47.2589310  19.3249310  17.7819310  48.4829310  19.4759310  16.9049310
  48.0839310  19.5879310  17.6739310  48.1739310  30.7749310   3.7829310
  48.2949310  31.6499310   3.4149310  48.3829310  30.1809310   3.0619310
  48.2159310  30.8109310   3.6429310  46.5919310  16.1739310   2.6609310
  46.7199310  17.0889310   2.4089310  45.6429310  16.0789310   2.7459310
  46.4869310  16.2789310   2.6399310  32.5709310  34.2569310   4.9659310
  31.7899310  34.1259310   4.4279310  32.5409310  35.1819310   5.2099310
  32.4669310  34.3589310   4.9279310  42.6219310  30.0589310  16.9169310
  43.2039310  29.8949310  17.6579310  42.0289310  30.7449310  17.2249310
  42.6199310  30.1259310  17.0509310  38.9239310  30.5229310   9.6559310
  38.4439310  29.7149310   9.8329310  39.6539310  30.5089310  10.2749310
  38.9559310  30.4179310   9.7579310  52.3359310  23.4399310   8.0399310
  52.3499310  23.1269310   8.9449310  52.2869310  24.3929310   8.1169310
  52.3319310  23.5219310   8.1659310  41.7289310  21.3759310   1.9229310
  41.1029310  20.6519310   1.9469310  41.9469310  21.5349310   2.8409310
  41.6769310  21.3039310   2.0429310  38.4669310  23.0239310  14.0429310
  37.6219310  22.7039310  14.3599310  38.9399310  22.2329310  13.7839310
  38.4189310  22.8819310  14.0509310  35.3939310  28.2099310  18.3769310
  36.2049310  27.7219310  18.2349310  35.1249310  28.4869310  17.5009310
  35.4629310  28.1829310  18.2459310  34.3019310  32.7819310   3.4999310
  33.7199310  33.2799310   4.0729310  34.5309310  33.3929310   2.7999310
  34.2569310  32.9239310   3.4839310  48.1949310  18.8909310  15.2179310
  47.3289310  18.7269310  14.8469310  48.7769310  18.2989310  14.7399310
  48.1589310  18.7939310  15.1089310  47.9009310  24.3409310   1.9239310
  47.4439310  24.0999310   2.7299310  48.8269310  24.2009310   2.1229310
  47.9609310  24.2919310   2.0529310  37.6559310  27.2499310  15.4049310
  38.5359310  26.8769310  15.3529310  37.1179310  26.6689310  14.8679310
  37.6999310  27.1279310  15.3299310  46.6449310  30.9609310  13.7619310
  46.2939310  30.8579310  14.6469310  46.7929310  31.9029310  13.6719310
  46.6189310  31.0679310  13.8639310  48.7819310  32.7279310  15.6409310
  48.9799310  32.3329310  16.4909310  48.1109310  33.3829310  15.8319310
  48.7209310  32.7609310  15.7739310  46.0259310  20.0579310   7.5119310
  46.7219310  19.6719310   6.9789310  45.4159310  19.3359310   7.6669310
  46.0369310  19.9159310   7.4629310  44.0999310  25.5069310  15.0539310
  43.5429310  25.1129310  14.3819310  43.5239310  26.1169310  15.5139310
  43.9549310  25.5349310  15.0269310  48.0139310  24.7679310  18.2479310
  47.1909310  25.1079310  17.8989310  47.8699310  24.7119310  19.1929310
  47.8909310  24.8039310  18.3239310  41.9269310  21.4939310   4.5869310
  41.1039310  21.7769310   4.9829310  42.6049310  21.8799310   5.1419310
  41.9089310  21.5789310   4.7089310  34.9389310  25.0849310  12.6799310
  34.5619310  24.9579310  13.5499310  34.3759310  24.5739310  12.0979310
  34.8189310  25.0039310  12.7169310  43.9459310  26.5949310   8.1349310
  44.4909310  27.0959310   8.7419310  43.2519310  27.2019310   7.8779310
  43.9269310  26.7359310   8.1799310  31.9289310  28.1609310   8.9559310
  32.3229310  28.0909310   8.0859310  32.5409310  27.7059310   9.5329310
  32.0579310  28.0939310   8.9179310  46.6499310  23.8409310   4.3279310
  46.6069310  24.4599310   5.0579310  46.2839310  23.0299310   4.6799310
  46.5979310  23.8169310   4.4669310  41.3999310  24.7049310   4.8069310
  40.7279310  24.0239310   4.8369310  41.4789310  24.9219310   3.8779310
  41.3239310  24.6459310   4.6919310  35.0869310  19.5579310  18.7699310
  34.9339310  19.8379310  17.8679310  34.8499310  20.3179310  19.3009310
  35.0369310  19.6909310  18.7229310  42.5859310  33.6839310  13.9249310
  42.0369310  33.6149310  13.1449310  42.9499310  32.8069310  14.0409310
  42.5629310  33.5629310  13.8399310  37.0199310  23.6789310  17.8759310
  36.9049310  23.3949310  16.9689310  36.1289310  23.7819310  18.2089310
  36.8909310  23.6559310  17.8019310  36.0649310  22.0059310  12.7219310
  35.4749310  21.2669310  12.5699310  36.6769310  21.9779310  11.9869310
  36.0679310  21.9079310  12.6079310  37.4499310  28.1979310  10.7539310
  37.4099310  27.2429310  10.7169310  36.9949310  28.4259310  11.5639310
  37.3869310  28.1049310  10.8529310  45.4149310  24.8509310  17.4359310
  44.7239310  24.2109310  17.6039310  45.2069310  25.2069310  16.5729310
  45.2999310  24.8139310  17.3469310  31.0329310  23.9529310   4.5729310
  31.6979310  24.5529310   4.9109310  30.2009310  24.3869310   4.7619310
  31.0119310  24.0849310   4.6409310  33.3659310  28.3979310   6.7749310
  34.0449310  28.1179310   7.3889310  33.4639310  29.3479310   6.7259310
  33.4649310  28.4839310   6.8479310  33.0359310  18.5889310   7.5399310
  32.7979310  17.7699310   7.1059310  32.2749310  19.1569310   7.4129310
  32.9079310  18.5569310   7.4679310  37.6069310  17.4039310   3.5439310
  37.8519310  16.5289310   3.8449310  37.3919310  17.8809310   4.3449310
  37.6109310  17.3529310   3.6849310  42.8389310  19.1529310   6.0819310
  42.5449310  19.8679310   5.5179310  42.5679310  19.4139310   6.9619310
  42.7669310  19.2779310   6.1219310  41.2929310  30.8089310  11.1639310
  41.2289310  30.2889310  11.9659310  41.8379310  31.5579310  11.4069310
  41.3539310  30.8379310  11.2979310  46.7919310  29.7049310   7.7829310
  45.8769310  29.7149310   7.4999310  46.9139310  28.8369310   8.1679310
  46.6899310  29.5949310   7.7959310  36.4139310  26.0219310   4.8669310
  37.2369310  26.5079310   4.8289310  36.4649310  25.5269310   5.6839310
  36.5259310  26.0209310   4.9659310  33.1049310  33.8969310   8.9429310
  32.5629310  34.3199310   9.6099310  34.0039310  34.0939310   9.2049310
  33.1499310  33.9769310   9.0619310  38.7089310  27.6589310   4.8689310
  38.1859310  28.3619310   5.2549310  38.7209310  27.8549310   3.9329310
  38.6439310  27.7739310   4.7989310  34.6459310  27.9619310  15.8629310
  34.6079310  28.2789310  14.9609310  33.7739310  27.6029310  16.0279310
  34.5289310  27.9559310  15.7689310  38.5539310  29.7019310  14.4379310
  37.7709310  30.1079310  14.0689310  38.2659310  28.8309310  14.7109310
  38.4169310  29.6419310  14.4259310  32.2919310  31.7139310  11.1809310
  32.9469310  32.0749310  10.5839310  31.6139310  31.3589310  10.6059310
  32.2889310  31.7149310  11.0309310  47.6039310  13.6059310  10.4319310
  47.7499310  14.0109310  11.2869310  46.6589310  13.6739310  10.2929310
  47.5019310  13.6659310  10.5239310  37.5799310  25.6589310  12.9169310
  37.9049310  24.8559310  13.3239310  36.7109310  25.4269310  12.5909310
  37.5099310  25.5269310  12.9269310  33.1959310  26.5929310  18.8859310
  33.9989310  27.1029310  18.7759310  32.7459310  27.0109310  19.6199310
  33.2409310  26.7119310  18.9659310  43.6919310  23.7409310   8.1459310
  44.1899310  23.5339310   7.3549310  43.8759310  24.6659310   8.3099310
  43.7789310  23.8329310   8.0659310  32.2809310  27.5239310   2.3449310
  33.0479310  27.2009310   2.8199310  31.5389310  27.2849310   2.8999310
  32.2839310  27.4519310   2.4769310  48.3799310  34.5129310  10.2139310
  48.2329310  33.5699310  10.2949310  49.0339310  34.7109310  10.8849310
  48.4449310  34.4169310  10.3099310  49.7129310  30.7909310   8.9999310
  48.8689310  31.2039310   9.1839310  49.5809310  29.8689310   9.2179310
  49.5879310  30.7259310   9.0509310  31.6189310  21.2799310  11.0409310
  32.4169310  20.9299310  10.6459310  31.5989310  20.8999310  11.9189310
  31.7179310  21.1859310  11.1029310  41.0129310  24.3369310   8.7689310
  40.6059310  25.0969310   8.3529310  41.8749310  24.2719310   8.3589310
  41.0709310  24.4259310   8.6629310  45.5499310  25.5759310   6.2509310
  46.2239310  25.9879310   6.7909310  44.7399310  26.0219310   6.4969310
  45.5329310  25.6859310   6.3509310  33.7039310  26.0669310   9.7539310
  34.6609310  26.0509310   9.7349310  33.4589310  25.2529310  10.1939310
  33.7949310  25.9609310   9.8079310  44.0069310  20.0769310  12.2929310
  43.5529310  20.5189310  11.5749310  43.4649310  20.2519310  13.0619310
  43.8799310  20.1559310  12.2989310  49.1719310  25.0049310  11.2369310
  48.7829310  24.5309310  11.9729310  48.6369310  25.7939310  11.1509310
  49.0539310  25.0449310  11.3199310  42.5459310  21.5529310  10.1029310
  43.1719310  22.0029310   9.5359310  42.4039310  20.7059310   9.6789310
  42.6079310  21.5019310   9.9759310  41.0809310  29.4299310  13.6019310
  41.4739310  30.2509310  13.8979310  40.1679310  29.4849310  13.8839310
  41.0149310  29.5419310  13.6759310  42.5699310  18.2979310   2.8589310
  41.8109310  18.5459310   2.3309310  43.1249310  19.0779310   2.8599310
  42.5439310  18.4299310   2.7919310  35.1049310  21.5909310   4.5759310
  35.0149310  21.3199310   3.6629310  34.2069310  21.7479310   4.8689310
  34.9779310  21.5769310   4.4969310  44.6919310  17.4819310   7.3719310
  44.0299310  17.8879310   6.8119310  45.3869310  17.2189310   6.7689310
  44.6959310  17.5009310   7.2229310  46.3049310  22.7139310  12.7509310
  46.0399310  22.0619310  13.4009310  46.5239310  22.2009310  11.9729310
  46.2989310  22.5649310  12.7349310  37.0509310  24.5069310   6.9759310
  37.2389310  23.7549310   6.4139310  37.9069310  24.8979310   7.1459310
  37.1839310  24.4609310   6.9259310  38.7069310  19.3669310  16.2159310
  39.6289310  19.4429310  16.4599310  38.2549310  19.9839310  16.7909310
  38.7669310  19.4549310  16.3199310  35.6979310  16.3769310   9.1349310
  35.8689310  17.2979310   9.3339310  36.2639310  15.8929310   9.7359310
  35.7919310  16.4329310   9.2369310  36.5519310  25.5039310   9.5279310
  36.8089310  25.0859310   8.7059310  36.6359310  24.8119310  10.1839310
  36.5959310  25.3619310   9.5069310  43.8639310  29.9589310   9.9869310
  43.9619310  30.2059310   9.0669310  43.0099310  30.3089310  10.2389310
  43.7669310  30.0349310   9.9019310  41.2539310  34.3729310   7.3259310
  41.0689310  33.5459310   6.8799310  40.9419310  35.0459310   6.7209310
  41.1899310  34.3529310   7.1909310  47.3579310  16.2429310  18.9509310
  46.8169310  15.7279310  19.5489310  46.8939310  17.0759310  18.8639310
  47.2299310  16.2839310  19.0169310  44.9519310  32.3849310  10.5259310
  44.4079310  32.9849310  10.0149310  44.5609310  31.5239310  10.3799310
  44.8329310  32.3519310  10.4419310  48.7269310  23.7939310  14.1489310
  47.8309310  23.4689310  14.0619310  48.6269310  24.6889310  14.4739310
  48.5989310  23.8669310  14.1799310  39.0439310  34.7529310   9.4989310
  39.0099310  34.0659310  10.1639310  39.5199310  34.3579310   8.7689310
  39.0999310  34.6149310   9.4909310  40.9229310  25.4809310   2.1869310
  41.6529310  26.1009310   2.1759310  40.1409310  26.0319310   2.1559310
  40.9159310  25.6309310   2.1809310  40.5549310  22.8619310  11.3029310
  40.1059310  22.1079310  11.6849310  41.2769310  22.4819310  10.8029310
  40.5899310  22.7169310  11.2879310  42.0899310  26.9859310  13.0149310
  41.8139310  27.8099310  13.4169310  43.0409310  26.9729310  13.1239310
  42.1769310  27.0899310  13.0799310  37.5779310  19.5989310   5.2859310
  37.4299310  20.5419310   5.2079310  36.7859310  19.2669310   5.7099310
  37.4579310  19.6769310   5.3299310  41.4459310  34.2089310  11.2639310
  42.2359310  34.7469310  11.2099310  40.8459310  34.6009310  10.6299310
  41.4699310  34.3279310  11.1759310  41.2289310  19.9429310  17.7049310
  40.7629310  20.5409310  18.2889310  41.8239310  20.5069310  17.2099310
  41.2449310  20.0909310  17.7159310  36.8339310  20.0879310   1.8809310
  35.9169310  19.8729310   2.0469310  37.3089310  19.6999310   2.6159310
  36.7769310  20.0109310   1.9959310  33.4759310  24.8339310  15.1519310
  32.7969310  25.4729310  15.3719310  33.0669310  23.9849310  15.3149310
  33.3359310  24.8069310  15.2009310  44.4359310  32.8389310   6.1159310
  44.0679310  33.4199310   6.7809310  45.3269310  33.1619310   5.9819310
  44.5029310  32.9549310   6.1839310  31.6239310  17.7429310  13.7339310
  32.4859310  17.7039310  14.1479310  31.8099310  17.8929310  12.8069310
  31.7579310  17.7569310  13.6679310  42.5409310  25.2759310  11.1009310
  42.2729310  25.9189310  11.7579310  41.7419310  25.0939310  10.6049310
  42.4039310  25.3349310  11.1209310  31.0829310  22.9139310  17.7209310
  30.4829310  23.6469310  17.8619310  31.6299310  22.8969310  18.5069310
  31.0759310  23.0059310  17.8399310  32.4389310  21.8149310   5.7639310
  32.8389310  22.3999310   6.4079310  31.9749310  22.3999310   5.1649310
  32.4309310  21.9649310   5.7699310  42.5179310  23.6099310  13.6629310
  42.3549310  23.9189310  12.7719310  41.6569310  23.3459310  13.9859310
  42.3869310  23.6159310  13.5909310  42.7399310  17.8309310  17.8009310
  42.7369310  17.5409310  16.8889310  42.0679310  18.5119310  17.8379310
  42.6529310  17.8809310  17.6889310  42.4499310  27.2729310  16.1989310
  41.6319310  27.1169310  15.7279310  42.4979310  28.2249310  16.2879310
  42.3519310  27.3749310  16.1499310  46.7999310  21.9689310  17.4299310
  47.5129310  21.3369310  17.5249310  47.2399310  22.8059310  17.2839310
  46.9469310  21.9949310  17.4229310  32.8289310  23.7509310  10.9519310
  32.0499310  24.2569310  11.1829310  32.5669310  22.8379310  11.0749310
  32.6959310  23.6989310  10.9969310  48.2729310  33.2459310  12.9989310
  48.5549310  33.1499310  13.9089310  47.4919310  33.7969310  13.0479310
  48.2089310  33.3039310  13.1219310  35.9249310  27.9079310   8.0579310
  35.8379310  28.6879310   8.6069310  35.9969310  27.1839310   8.6809310
  35.9229310  27.9149310   8.2079310  31.5559310  18.9919310   3.2629310
  31.4989310  18.7379310   2.3419310  31.0079310  19.7739310   3.3309310
  31.4789310  19.0599310   3.1539310  36.0269310  23.0489310  15.2419310
  35.9359310  22.9289310  14.2969310  35.3029310  23.6269310  15.4799310
  35.9229310  23.1079310  15.1509310  37.1089310  16.5649310   6.6939310
  36.7039310  16.2339310   7.4959310  37.2159310  15.7909310   6.1419310
  37.0709310  16.4239310   6.7259310  48.1939310  32.0239310   6.4339310
  48.2639310  31.3949310   7.1509310  48.2599310  31.4919310   5.6409310
  48.2109310  31.8759310   6.4239310  37.6519310  22.6109310   4.5799310
  38.0249310  22.5459310   3.7009310  36.7469310  22.3149310   4.4789310
  37.5839310  22.5639310   4.4549310  37.3509310  29.7679310   3.0139310
  36.6189310  29.2789310   2.6379310  38.0109310  29.7809310   2.3219310
  37.3409310  29.7069310   2.8779310  39.7969310  19.5079310   6.9649310
  38.9449310  19.3699310   6.5529310  39.8469310  20.4549310   7.1009310
  39.6949310  19.6119310   6.9299310  32.2969310  33.1129310  13.5849310
  32.0039310  32.8399310  12.7149310  31.9889310  34.0149310  13.6689310
  32.2199310  33.1929310  13.4839310  34.6689310  20.1759310  16.1559310
  35.4599310  20.2089310  15.6189310  34.3089310  21.0619310  16.1079310
  34.7239310  20.2929310  16.0809310  45.8249310  18.4289310  17.6249310
  45.8859310  18.0819310  16.7349310  44.8849310  18.4769310  17.7989310
  45.7119310  18.3909310  17.5329310  36.2119310  30.4769310  12.9829310
  35.6419310  31.1639310  13.3299310  35.7599310  29.6609310  13.1969310
  36.0809310  30.4609310  13.0549310  42.8039310  32.0579310   4.0739310
  42.1189310  31.9859310   4.7389310  43.6019310  32.2359310   4.5709310
  42.8179310  32.0709310   4.2229310  40.5149310  17.6819310   5.0559310
  40.2899310  18.4669310   5.5549310  41.4139310  17.8339310   4.7639310
  40.6019310  17.8019310   5.0829310  45.9419310  17.4019310   9.9259310
  46.8129310  17.0089310   9.9829310  45.8429310  17.6329310   9.0029310
  46.0409310  17.3809310   9.8149310  42.8499310  17.6689310  15.0599310
  42.5899310  16.8929310  14.5629310  43.8059310  17.6739310  15.0119310
  42.9389310  17.5699310  14.9899310  45.9669310  21.2669310   5.1739310
  45.7459310  21.0169310   6.0719310  46.7829310  20.8009310   4.9909310
  46.0429310  21.1749310   5.2659310  39.7699310  19.8169310  10.3409310
  38.9189310  19.3859310  10.2539310  39.8689310  19.9639310  11.2819310
  39.6729310  19.7809310  10.4499310  38.4009310  16.8379310  17.4919310
  37.8479310  17.1489310  18.2079310  38.4619310  17.5839310  16.8949310
  38.3379310  16.9729310  17.5069310  37.1919310  29.3509310   6.1769310
  36.5559310  28.8959310   6.7279310  36.7039310  30.0849310   5.8039310
  37.0489310  29.3869310   6.1999310  43.0699310  31.0219310  14.3819310
  42.8669310  30.7119310  15.2639310  43.5839310  30.3139310  13.9919310
  43.1099310  30.8909310  14.4449310  48.6579310  21.2909310   3.0099310
  47.8349310  20.8039310   2.9619310  48.4059310  22.1549310   3.3379310
  48.5209310  21.3389310   3.0459310  45.7149310  28.6239310  17.0289310
  45.0749310  28.0909310  17.5009310  45.6769310  28.3009310  16.1279310
  45.6279310  28.5139310  16.9739310  39.4819310  30.9919310  17.1639310
  39.0949310  30.6269310  16.3679310  38.8339310  31.6209310  17.4789310
  39.3489310  31.0249310  17.1029310  31.8419310  30.3459310  14.5329310
  31.4599310  31.1889310  14.7769310  32.6659310  30.5719310  14.1019310
  31.8979310  30.4829310  14.5089310  33.7449310  19.9719310   9.9549310
  33.6509310  19.5049310   9.1249310  34.5679310  19.6489310  10.3199310
  33.8379310  19.8709310   9.8959310  48.3819310  26.4609310  14.8459310
  47.4909310  26.6769310  15.1239310  48.6589310  27.2139310  14.3239310
  48.3029310  26.5849310  14.8149310  47.4499310  28.4829310   5.2779310
  47.4719310  28.5989310   6.2279310  47.6229310  29.3559310   4.9269310
  47.4749310  28.6099310   5.3549310  46.8249310  34.4229310   5.5849310
  46.5609310  34.3879310   4.6659310  47.4469310  33.7019310   5.6839310
  46.8709310  34.3259310   5.4799310  43.9989310  34.4189310   3.0959310
  43.4829310  33.7339310   3.5219310  43.5159310  35.2259310   3.2699310
  43.8709310  34.4339310   3.1729310  35.9079310  19.2299310  11.2109310
  36.3599310  18.6509310  11.8249310  36.4709310  19.2449310  10.4379310
  36.0379310  19.1579310  11.1909310  32.4899310  22.3299310  15.4799310
  31.9239310  22.6909310  14.7979310  31.9939310  22.4459310  16.2899310
  32.3539310  22.3909310  15.4959310  43.7359310  35.9619310  11.3969310
  44.5109310  35.8059310  10.8579310  43.7049310  36.9129310  11.5029310
  43.8309310  36.0639310  11.3419310  40.3059310  32.3739310   5.6259310
  40.0679310  31.5609310   6.0699310  39.5009310  32.6519310   5.1889310
  40.1729310  32.3059310   5.6269310  45.4989310  31.7939310  16.9329310
  45.7689310  30.8899310  17.0929310  44.5469310  31.7809310  17.0339310
  45.4119310  31.6769310  16.9669310  45.8089310  27.4999310  14.6299310
  45.1989310  26.7639310  14.6859310  45.3769310  28.1239310  14.0469310
  45.6759310  27.4849310  14.5629310  34.9069310  28.0879310  13.0549310
  34.4459310  28.4319310  12.2899310  34.9879310  27.1499310  12.8829310
  34.8579310  28.0119310  12.9349310  33.1029310  25.7289310   5.2399310
  34.0589310  25.7609310   5.2669310  32.8319310  26.6459310   5.2779310
  33.1909310  25.8499310   5.2479310  37.9429310  21.1879310  18.1829310
  37.1779310  20.7909310  18.6009310  37.6889310  22.0989310  18.0349310
  37.8119310  21.2539310  18.2179310  34.4619310  19.0189310   3.2109310
  34.7699310  19.0839310   4.1149310  33.5439310  18.7609310   3.2899310
  34.3839310  18.9939310   3.3369310  43.7709310  23.2799310   5.5949310
  44.3909310  23.7239310   5.0159310  42.9609310  23.7839310   5.5099310
  43.7469310  23.4019310   5.5099310  36.0629310  31.4159310   4.8269310
  35.3629310  31.8139310   4.3099310  36.4949310  30.8129310   4.2209310
  36.0289310  31.3899310   4.6829310  44.6639310  29.3589310  12.6489310
  44.4909310  29.2819310  11.7109310  45.4469310  29.9059310  12.7039310
  44.7419310  29.4189310  12.5359310  39.4819310  25.7429310   6.9679310
  39.9959310  25.1429310   6.4279310  39.2079310  26.4329310   6.3639310
  39.5119310  25.7539310   6.8219310  46.5099310  34.3099310  16.2589310
  46.9189310  34.4819310  17.1069310  46.2409310  33.3929310  16.3039310
  46.5279310  34.2149310  16.3729310  45.5239310  18.9719310  14.5269310
  45.2369310  19.7979310  14.9179310  45.3009310  19.0559310  13.5999310
  45.4579310  19.0889310  14.4589310  49.1769310  33.6019310   3.2569310
  49.7639310  33.4249310   2.5219310  48.5859310  34.2819310   2.9329310
  49.1759310  33.6659310   3.1209310  49.0169310  31.9569310  18.2519310
  48.2449310  31.9879310  18.8159310  49.6339310  32.5669310  18.6579310
  48.9969310  32.0389310  18.3769310  49.5389310  20.3079310   7.0129310
  50.1209310  20.7929310   6.4269310  48.9729310  20.9779310   7.3959310
  49.5409310  20.4559310   6.9869310  43.9179310  27.0839310  18.3209310
  43.1069310  27.1219310  17.8139310  44.2819310  26.2209310  18.1259310
  43.8609310  26.9789310  18.2309310  37.2579310  19.1269310   8.8789310
  37.0799310  19.7169310   8.1469310  37.7429310  18.3999310   8.4889310
  37.2969310  19.1099310   8.7359310  30.8629310  25.7169310   7.4559310
  31.4599310  25.9729310   6.7519310  31.1659310  26.2119310   8.2179310
  30.9779310  25.8129310   7.4629310  33.5439310  29.2239310  11.2609310
  33.8029310  29.9169310  10.6529310  32.6719310  29.4829310  11.5599310
  33.4659310  29.3459310  11.2209310  47.2319310  26.8139310   8.2419310
  48.0849310  26.4729310   7.9719310  47.2539310  26.7849310   9.1979310
  47.3439310  26.7659310   8.3289310  40.1619310  23.7249310  16.1469310
  39.4079310  23.3949310  15.6579310  39.9609310  23.5269310  17.0609310
  40.0399310  23.6569310  16.2009310  43.7119310  23.0479310  18.2159310
  42.9279310  23.0089310  18.7639310  44.3489310  22.4969310  18.6699310
  43.6929310  22.9729310  18.3439310  49.3079310  16.8399310   7.7499310
  48.7119310  16.4899310   8.4119310  50.0259310  16.2079310   7.7149310
  49.3239310  16.7149310   7.8299310  45.3779310  27.4849310   3.4569310
  45.7739310  27.8259310   4.2589310  45.8689310  27.9039310   2.7499310
  45.4909310  27.5819310   3.4689310  45.1069310  21.5709310  15.4189310
  45.7999310  21.7649310  16.0509310  44.4709310  22.2769310  15.5369310
  45.1139310  21.6859310  15.5149310  45.5719310  33.8409310  12.8939310
  45.0989310  34.6739310  12.8869310  45.0409310  33.2599310  12.3499310
  45.4429310  33.8729310  12.8239310  35.0829310  13.8309310  70.5779310
  34.1289310  13.7629310  70.5459310  35.2719310  14.1379310  71.4639310
  34.9849310  13.8619310  70.6869310  39.8479310  11.2749310  63.7409310
  39.6739310  11.4359310  64.6689310  39.0829310  10.7889310  63.4349310
  39.7279310  11.2329310  63.8209310  36.4189310   6.1719310  59.0719310
  36.2649310   6.6289310  59.8989310  37.1309310   5.5619310  59.2639310
  36.4899310   6.1519310  59.2019310  46.5799310  12.3309310  57.2579310
  45.7179310  12.6589310  57.0019310  46.4839310  11.3789310  57.2569310
  46.4569310  12.2509310  57.2249310  33.3059310  12.4279310  64.0349310
  33.3439310  13.3209310  63.6909310  32.5069310  12.4069310  64.5609310
  33.2089310  12.5399310  64.0579310  38.0169310  14.2179310  60.7239310
  37.2179310  13.6909310  60.7339310  38.3609310  14.1149310  59.8369310
  37.9589310  14.1369310  60.6119310  41.9249310   9.2029310  63.1909310
  41.4989310   8.5959310  62.5869310  41.2619310   9.8699310  63.3689310
  41.7859310   9.2109310  63.1369310  48.7959310   4.1259310  64.2849310
  48.0169310   4.2359310  64.8299310  49.1399310   5.0119310  64.1759310
  48.7399310   4.2529310  64.3409310  40.1269310   7.4419310  71.7169310
  39.9989310   6.5769310  72.1059310  40.5699310   7.2669310  70.8859310
  40.1669310   7.3089310  71.6599310  43.0029310   8.3939310  58.7359310
  43.7729310   8.4149310  59.3029310  43.3219310   8.0269310  57.9119310
  43.1419310   8.3499310  58.7029310  48.7389310   8.0309310  60.4659310
  48.3729310   8.6719310  61.0759310  47.9739310   7.6089310  60.0739310
  48.5939310   8.0589310  60.4939310  46.7209310   9.6309310  57.4829310
  46.7629310   9.4969310  56.5359310  47.6069310   9.8979310  57.7259310
  46.8399310   9.6479310  57.3929310  32.1239310   8.1089310  72.8669310
  31.2029310   7.8889310  72.7269310  32.2039310   8.2159310  73.8139310
  32.0159310   8.0939310  72.9699310  43.7139310  11.7979310  64.0719310
  43.8899310  12.6479310  63.6689310  42.9549310  11.4609310  63.5979310
  43.6399310  11.8639310  63.9599310  43.5039310  15.1229310  65.3239310
  44.0899310  15.8599310  65.1489310  42.7219310  15.3089310  64.8049310
  43.4789310  15.2409310  65.2349310  35.8259310   2.3779310  63.8439310
  35.4189310   2.3769310  62.9769310  35.3399310   3.0409310  64.3349310
  35.7119310   2.4629310  63.7959310  42.2929310   3.2629310  72.8609310
  42.8789310   3.5759310  73.5499310  41.5669310   3.8879310  72.8609310
  42.2749310   3.3829310  72.9489310  39.9129310   3.7639310  62.3929310
  39.0879310   3.7459310  61.9079310  39.6619310   3.5779310  63.2979310
  39.7749310   3.7379310  62.4469310  37.0269310  13.4289310  67.0099310
  36.7659310  13.0539310  67.8509310  37.7579310  12.8839310  66.7209310
  37.0869310  13.3109310  67.0799310  35.2649310  11.6219310  65.7249310
  34.5409310  11.9249310  65.1769310  35.8589310  12.3719310  65.7729310
  35.2489310  11.7569310  65.6609310  34.7379310   5.3859310  57.0629310
  34.1349310   6.1229310  56.9669310  35.3669310   5.6759310  57.7239310
  34.7409310   5.5169310  57.1349310  39.1649310  13.8479310  58.3559310
  39.6239310  13.0259310  58.5279310  39.8629310  14.4879310  58.2169310
  39.3129310  13.8249310  58.3599310  37.8879310   4.3389310  67.3379310
  38.7689310   4.6309310  67.5699310  37.9739310   4.0049310  66.4449310
  38.0119310   4.3339310  67.2529310  47.3139310   8.1659310  67.6439310
  47.7539310   8.6729310  68.3269310  46.6419310   7.6689310  68.1099310
  47.2849310   8.1669310  67.7909310  48.5289310   9.9339310  69.8719310
  47.8149310  10.5389310  69.6729310  49.2449310  10.4969310  70.1689310
  48.5299310  10.0829310  69.8849310  42.0409310  10.9949310  58.8099310
  42.3449310  10.1019310  58.9659310  42.5679310  11.5349310  59.3989310
  42.1469310  10.9499310  58.9049310  47.3059310   2.3309310  66.7129310
  48.2179310   2.3419310  67.0059310  47.3059310   1.7459310  65.9549310
  47.4229310   2.2569310  66.6539310  45.1509310   6.6679310  68.5639310
  44.2759310   6.4109310  68.2739310  45.5029310   5.8849310  68.9879310
  45.0839310   6.5349310  68.5809310  34.8599310  13.5839310  73.7219310
  34.6079310  14.4879310  73.9129310  35.7649310  13.5189310  74.0249310
  34.9439310  13.6919310  73.7849310  39.4959310   3.1679310  65.0269310
  39.5819310   2.3839310  65.5699310  39.9359310   3.8549310  65.5269310
  39.5629310   3.1559310  65.1599310  48.1739310  11.9079310  60.3629310
  48.2949310  12.7829310  59.9949310  48.3829310  11.3139310  59.6419310
  48.2159310  11.9439310  60.2229310  32.5709310  15.3899310  61.5459310
  31.7899310  15.2589310  61.0079310  32.5409310  16.3149310  61.7899310
  32.4669310  15.4919310  61.5079310  42.6219310  11.1919310  73.4969310
  43.2039310  11.0279310  74.2379310  42.0289310  11.8779310  73.8049310
  42.6199310  11.2589310  73.6309310  38.9239310  11.6559310  66.2359310
  38.4439310  10.8479310  66.4129310  39.6539310  11.6419310  66.8549310
  38.9559310  11.5509310  66.3379310  52.3359310   4.5729310  64.6199310
  52.3499310   4.2599310  65.5249310  52.2869310   5.5259310  64.6969310
  52.3319310   4.6549310  64.7459310  41.7289310   2.5089310  58.5029310
  41.1029310   1.7849310  58.5269310  41.9469310   2.6679310  59.4209310
  41.6769310   2.4369310  58.6229310  38.4669310   4.1569310  70.6229310
  37.6219310   3.8369310  70.9399310  38.9399310   3.3659310  70.3639310
  38.4189310   4.0149310  70.6309310  34.3019310  13.9149310  60.0799310
  33.7199310  14.4129310  60.6529310  34.5309310  14.5259310  59.3799310
  34.2569310  14.0569310  60.0639310  47.9009310   5.4739310  58.5039310
  47.4439310   5.2329310  59.3099310  48.8269310   5.3339310  58.7029310
  47.9609310   5.4249310  58.6329310  37.6559310   8.3829310  71.9849310
  38.5359310   8.0099310  71.9329310  37.1179310   7.8019310  71.4479310
  37.6999310   8.2609310  71.9099310  46.6449310  12.0939310  70.3419310
  46.2939310  11.9909310  71.2269310  46.7929310  13.0359310  70.2519310
  46.6189310  12.2009310  70.4439310  48.7819310  13.8609310  72.2209310
  48.9799310  13.4659310  73.0709310  48.1109310  14.5159310  72.4119310
  48.7209310  13.8939310  72.3539310  44.0999310   6.6399310  71.6339310
  43.5429310   6.2459310  70.9619310  43.5239310   7.2499310  72.0939310
  43.9549310   6.6679310  71.6069310  41.9269310   2.6269310  61.1669310
  41.1039310   2.9099310  61.5629310  42.6049310   3.0129310  61.7219310
  41.9089310   2.7119310  61.2889310  34.9389310   6.2179310  69.2599310
  34.5619310   6.0909310  70.1299310  34.3759310   5.7069310  68.6779310
  34.8189310   6.1369310  69.2969310  43.9459310   7.7279310  64.7149310
  44.4909310   8.2289310  65.3219310  43.2519310   8.3349310  64.4579310
  43.9269310   7.8689310  64.7599310  31.9289310   9.2939310  65.5359310
  32.3229310   9.2239310  64.6659310  32.5409310   8.8389310  66.1129310
  32.0579310   9.2269310  65.4979310  46.6499310   4.9739310  60.9079310
  46.6069310   5.5929310  61.6379310  46.2839310   4.1629310  61.2599310
  46.5979310   4.9499310  61.0469310  41.3999310   5.8379310  61.3869310
  40.7279310   5.1569310  61.4169310  41.4789310   6.0549310  60.4579310
  41.3239310   5.7789310  61.2719310  42.5859310  14.8169310  70.5049310
  42.0369310  14.7479310  69.7249310  42.9499310  13.9399310  70.6209310
  42.5629310  14.6959310  70.4199310  36.0649310   3.1389310  69.3019310
  35.4749310   2.3999310  69.1499310  36.6769310   3.1109310  68.5669310
  36.0679310   3.0409310  69.1879310  37.4499310   9.3309310  67.3339310
  37.4099310   8.3759310  67.2969310  36.9949310   9.5589310  68.1439310
  37.3869310   9.2379310  67.4329310  45.4149310   5.9839310  74.0159310
  44.7239310   5.3439310  74.1839310  45.2069310   6.3399310  73.1529310
  45.2999310   5.9469310  73.9269310  31.0329310   5.0859310  61.1529310
  31.6979310   5.6859310  61.4909310  30.2009310   5.5199310  61.3419310
  31.0119310   5.2179310  61.2209310  33.3659310   9.5309310  63.3549310
  34.0449310   9.2509310  63.9689310  33.4639310  10.4809310  63.3059310
  33.4649310   9.6169310  63.4279310  38.7799310   8.2669310  58.4419310
  38.3969310   7.9579310  57.6209310  39.0189310   9.1779310  58.2669310
  38.7619310   8.3439310  58.3149310  41.2929310  11.9419310  67.7439310
  41.2289310  11.4219310  68.5459310  41.8379310  12.6909310  67.9869310
  41.3539310  11.9709310  67.8779310  46.7919310  10.8379310  64.3629310
  45.8769310  10.8479310  64.0799310  46.9139310   9.9699310  64.7479310
  46.6899310  10.7279310  64.3759310  34.4449310   2.8019310  58.1579310
  33.5199310   2.5589310  58.1959310  34.4409310   3.7219310  57.8929310
  34.3269310   2.8889310  58.1289310  36.4139310   7.1549310  61.4469310
  37.2369310   7.6409310  61.4089310  36.4649310   6.6599310  62.2639310
  36.5259310   7.1539310  61.5459310  33.1049310  15.0299310  65.5229310
  32.5629310  15.4529310  66.1899310  34.0039310  15.2269310  65.7849310
  33.1499310  15.1099310  65.6419310  38.7089310   8.7919310  61.4489310
  38.1859310   9.4949310  61.8349310  38.7209310   8.9879310  60.5129310
  38.6439310   8.9069310  61.3789310  45.7519310   3.6589310  57.6129310
  46.2299310   3.3059310  56.8639310  46.2539310   4.4309310  57.8759310
  45.8769310   3.7129310  57.5509310  34.6459310   9.0949310  72.4429310
  34.6079310   9.4119310  71.5409310  33.7739310   8.7359310  72.6079310
  34.5289310   9.0889310  72.3489310  38.5539310  10.8349310  71.0179310
  37.7709310  11.2409310  70.6489310  38.2659310   9.9639310  71.2909310
  38.4169310  10.7749310  71.0059310  32.2919310  12.8469310  67.7609310
  32.9469310  13.2079310  67.1639310  31.6139310  12.4919310  67.1859310
  32.2889310  12.8479310  67.6109310  37.5799310   6.7919310  69.4969310
  37.9049310   5.9889310  69.9039310  36.7109310   6.5599310  69.1709310
  37.5099310   6.6599310  69.5069310  43.6919310   4.8739310  64.7259310
  44.1899310   4.6669310  63.9349310  43.8759310   5.7989310  64.8899310
  43.7789310   4.9659310  64.6459310  38.3169310   3.6199310  58.4669310
  37.8359310   2.8029310  58.3359310  38.7509310   3.7789310  57.6289310
  38.3109310   3.5359310  58.3429310  32.2809310   8.6569310  58.9249310
  33.0479310   8.3339310  59.3999310  31.5389310   8.4179310  59.4799310
  32.2839310   8.5849310  59.0569310  48.3799310  15.6459310  66.7939310
  48.2329310  14.7029310  66.8749310  49.0339310  15.8439310  67.4649310
  48.4449310  15.5499310  66.8899310  49.7129310  11.9239310  65.5799310
  48.8689310  12.3369310  65.7639310  49.5809310  11.0019310  65.7979310
  49.5879310  11.8589310  65.6309310  31.6189310   2.4129310  67.6209310
  32.4169310   2.0629310  67.2259310  31.5989310   2.0329310  68.4989310
  31.7179310   2.3189310  67.6829310  41.0129310   5.4699310  65.3489310
  40.6059310   6.2299310  64.9329310  41.8749310   5.4049310  64.9389310
  41.0709310   5.5589310  65.2429310  45.5499310   6.7089310  62.8309310
  46.2239310   7.1209310  63.3709310  44.7399310   7.1549310  63.0769310
  45.5329310   6.8189310  62.9309310  33.7039310   7.1999310  66.3339310
  34.6609310   7.1839310  66.3149310  33.4589310   6.3859310  66.7739310
  33.7949310   7.0939310  66.3879310  49.1719310   6.1379310  67.8169310
  48.7829310   5.6639310  68.5529310  48.6369310   6.9269310  67.7309310
  49.0539310   6.1779310  67.8999310  42.5459310   2.6859310  66.6829310
  43.1719310   3.1359310  66.1159310  42.4039310   1.8389310  66.2589310
  42.6079310   2.6349310  66.5559310  41.0809310  10.5629310  70.1819310
  41.4739310  11.3839310  70.4779310  40.1679310  10.6179310  70.4639310
  41.0149310  10.6749310  70.2559310  35.1049310   2.7239310  61.1559310
  35.0149310   2.4529310  60.2429310  34.2069310   2.8809310  61.4489310
  34.9779310   2.7099310  61.0769310  46.3049310   3.8469310  69.3309310
  46.0399310   3.1949310  69.9809310  46.5239310   3.3339310  68.5529310
  46.2989310   3.6979310  69.3149310  37.0509310   5.6399310  63.5559310
  37.2389310   4.8879310  62.9939310  37.9069310   6.0309310  63.7259310
  37.1839310   5.5939310  63.5059310  39.5009310  10.8469310  57.8389310
  40.3449310  10.8089310  58.2899310  39.7239310  11.0519310  56.9309310
  39.6379310  10.8679310  57.7809310  36.5519310   6.6369310  66.1079310
  36.8089310   6.2189310  65.2859310  36.6359310   5.9449310  66.7639310
  36.5959310   6.4949310  66.0869310  43.8639310  11.0919310  66.5669310
  43.9619310  11.3389310  65.6469310  43.0099310  11.4419310  66.8189310
  43.7669310  11.1679310  66.4819310  41.2539310  15.5059310  63.9059310
  41.0689310  14.6789310  63.4599310  40.9419310  16.1789310  63.3009310
  41.1899310  15.4859310  63.7709310  42.8419310  14.7409310  56.9959310
  42.9999310  15.5799310  56.5629310  43.1039310  14.8879310  57.9049310
  42.8959310  14.8669310  57.0569310  44.9519310  13.5179310  67.1059310
  44.4079310  14.1179310  66.5949310  44.5609310  12.6569310  66.9599310
  44.8329310  13.4849310  67.0219310  48.7269310   4.9269310  70.7289310
  47.8309310   4.6019310  70.6419310  48.6269310   5.8219310  71.0539310
  48.5989310   4.9999310  70.7599310  39.0439310  15.8859310  66.0789310
  39.0099310  15.1989310  66.7439310  39.5199310  15.4909310  65.3489310
  39.0999310  15.7479310  66.0709310  40.9229310   6.6139310  58.7669310
  41.6529310   7.2339310  58.7559310  40.1409310   7.1649310  58.7359310
  40.9159310   6.7639310  58.7609310  40.5549310   3.9949310  67.8829310
  40.1059310   3.2409310  68.2649310  41.2769310   3.6149310  67.3829310
  40.5899310   3.8499310  67.8679310  42.0899310   8.1189310  69.5949310
  41.8139310   8.9429310  69.9969310  43.0409310   8.1059310  69.7039310
  42.1769310   8.2229310  69.6599310  41.4459310  15.3419310  67.8439310
  42.2359310  15.8799310  67.7899310  40.8459310  15.7339310  67.2099310
  41.4699310  15.4609310  67.7559310  33.4759310   5.9669310  71.7319310
  32.7969310   6.6059310  71.9519310  33.0669310   5.1179310  71.8949310
  33.3359310   5.9399310  71.7809310  44.4359310  13.9719310  62.6959310
  44.0679310  14.5529310  63.3609310  45.3269310  14.2949310  62.5619310
  44.5029310  14.0879310  62.7639310  42.5409310   6.4089310  67.6809310
  42.2729310   7.0519310  68.3379310  41.7419310   6.2269310  67.1849310
  42.4039310   6.4679310  67.7009310  32.4389310   2.9479310  62.3439310
  32.8389310   3.5329310  62.9879310  31.9749310   3.5329310  61.7449310
  32.4309310   3.0979310  62.3499310  42.5179310   4.7429310  70.2429310
  42.3549310   5.0519310  69.3519310  41.6569310   4.4789310  70.5659310
  42.3869310   4.7489310  70.1709310  35.3149310   9.6629310  58.6729310
  35.4009310   9.6119310  57.7209310  34.7619310  10.4309310  58.8219310
  35.2549310   9.7549310  58.5699310  42.4499310   8.4059310  72.7789310
  41.6319310   8.2499310  72.3079310  42.4979310   9.3579310  72.8679310
  42.3519310   8.5079310  72.7299310  46.7999310   3.1019310  74.0099310
  47.5129310   2.4699310  74.1049310  47.2399310   3.9389310  73.8639310
  46.9469310   3.1279310  74.0029310  32.8289310   4.8839310  67.5319310
  32.0499310   5.3899310  67.7629310  32.5669310   3.9709310  67.6549310
  32.6959310   4.8319310  67.5769310  48.2729310  14.3789310  69.5789310
  48.5549310  14.2829310  70.4889310  47.4919310  14.9299310  69.6279310
  48.2089310  14.4369310  69.7019310  35.9249310   9.0409310  64.6379310
  35.8379310   9.8209310  65.1869310  35.9969310   8.3169310  65.2609310
  35.9229310   9.0479310  64.7879310  36.0269310   4.1819310  71.8219310
  35.9359310   4.0619310  70.8769310  35.3029310   4.7599310  72.0599310
  35.9229310   4.2409310  71.7309310  48.1939310  13.1569310  63.0139310
  48.2639310  12.5279310  63.7309310  48.2599310  12.6249310  62.2209310
  48.2109310  13.0089310  63.0039310  37.6519310   3.7439310  61.1599310
  38.0249310   3.6789310  60.2809310  36.7469310   3.4479310  61.0589310
  37.5839310   3.6969310  61.0349310  37.3509310  10.9009310  59.5939310
  36.6189310  10.4119310  59.2179310  38.0109310  10.9139310  58.9019310
  37.3409310  10.8399310  59.4579310  32.2969310  14.2459310  70.1649310
  32.0039310  13.9729310  69.2949310  31.9889310  15.1479310  70.2489310
  32.2199310  14.3259310  70.0639310  40.8419310   4.3119310  56.7839310
  40.8229310   4.9619310  57.4859310  41.1969310   3.5239310  57.1959310
  40.8849310   4.2949310  56.9259310  36.2119310  11.6099310  69.5629310
  35.6419310  12.2969310  69.9099310  35.7599310  10.7939310  69.7769310
  36.0809310  11.5939310  69.6349310  42.8039310  13.1909310  60.6539310
  42.1189310  13.1189310  61.3189310  43.6019310  13.3689310  61.1509310
  42.8179310  13.2039310  60.8029310  45.9669310   2.3999310  61.7539310
  45.7459310   2.1499310  62.6519310  46.7829310   1.9339310  61.5709310
  46.0429310   2.3079310  61.8459310  43.8129310  12.1629310  56.9009310
  43.4129310  13.0309310  56.9509310  43.3369310  11.6419310  57.5479310
  43.7009310  12.2079310  56.9899310  37.1919310  10.4839310  62.7569310
  36.5559310  10.0289310  63.3079310  36.7039310  11.2179310  62.3839310
  37.0489310  10.5199310  62.7799310  43.0699310  12.1549310  70.9619310
  42.8669310  11.8449310  71.8439310  43.5839310  11.4469310  70.5719310
  43.1099310  12.0239310  71.0249310  48.6579310   2.4239310  59.5899310
  47.8349310   1.9369310  59.5419310  48.4059310   3.2879310  59.9179310
  48.5209310   2.4719310  59.6259310  45.7149310   9.7569310  73.6089310
  45.0749310   9.2239310  74.0809310  45.6769310   9.4339310  72.7079310
  45.6279310   9.6469310  73.5539310  39.4819310  12.1249310  73.7439310
  39.0949310  11.7599310  72.9479310  38.8339310  12.7539310  74.0589310
  39.3489310  12.1579310  73.6829310  31.8419310  11.4789310  71.1129310
  31.4599310  12.3219310  71.3569310  32.6659310  11.7049310  70.6819310
  31.8979310  11.6159310  71.0889310  48.3819310   7.5939310  71.4259310
  47.4909310   7.8099310  71.7039310  48.6589310   8.3469310  70.9039310
  48.3029310   7.7179310  71.3949310  47.4499310   9.6159310  61.8579310
  47.4719310   9.7319310  62.8079310  47.6229310  10.4889310  61.5069310
  47.4749310   9.7429310  61.9349310  46.8249310  15.5559310  62.1649310
  46.5609310  15.5209310  61.2459310  47.4469310  14.8349310  62.2639310
  46.8709310  15.4589310  62.0599310  43.9989310  15.5519310  59.6759310
  43.4829310  14.8669310  60.1019310  43.5159310  16.3589310  59.8499310
  43.8709310  15.5669310  59.7529310  32.4899310   3.4629310  72.0599310
  31.9239310   3.8239310  71.3779310  31.9939310   3.5789310  72.8699310
  32.3539310   3.5239310  72.0759310  43.7359310  17.0949310  67.9769310
  44.5109310  16.9389310  67.4379310  43.7049310  18.0459310  68.0829310
  43.8309310  17.1969310  67.9219310  40.3059310  13.5069310  62.2059310
  40.0679310  12.6939310  62.6499310  39.5009310  13.7849310  61.7689310
  40.1729310  13.4389310  62.2069310  45.4989310  12.9269310  73.5129310
  45.7689310  12.0229310  73.6729310  44.5469310  12.9139310  73.6139310
  45.4119310  12.8099310  73.5469310  45.8089310   8.6329310  71.2099310
  45.1989310   7.8969310  71.2659310  45.3769310   9.2569310  70.6269310
  45.6759310   8.6179310  71.1429310  34.9069310   9.2209310  69.6349310
  34.4459310   9.5649310  68.8699310  34.9879310   8.2829310  69.4629310
  34.8579310   9.1449310  69.5149310  33.1029310   6.8619310  61.8199310
  34.0589310   6.8939310  61.8469310  32.8319310   7.7789310  61.8579310
  33.1909310   6.9829310  61.8279310  43.7709310   4.4129310  62.1749310
  44.3909310   4.8569310  61.5959310  42.9609310   4.9169310  62.0899310
  43.7469310   4.5349310  62.0899310  30.3909310  10.4649310  58.1359310
  31.0189310   9.9419310  58.6349310  30.8849310  10.7709310  57.3749310
  30.5349310  10.4369310  58.1029310  36.0629310  12.5489310  61.4069310
  35.3629310  12.9469310  60.8899310  36.4949310  11.9459310  60.8009310
  36.0289310  12.5229310  61.2629310  44.6639310  10.4919310  69.2289310
  44.4909310  10.4149310  68.2909310  45.4469310  11.0389310  69.2839310
  44.7419310  10.5519310  69.1159310  39.4819310   6.8759310  63.5479310
  39.9959310   6.2759310  63.0079310  39.2079310   7.5659310  62.9439310
  39.5119310   6.8869310  63.4019310  46.5099310  15.4429310  72.8389310
  46.9189310  15.6149310  73.6869310  46.2409310  14.5259310  72.8839310
  46.5279310  15.3479310  72.9529310  49.1769310  14.7349310  59.8369310
  49.7639310  14.5579310  59.1019310  48.5859310  15.4149310  59.5129310
  49.1759310  14.7989310  59.7009310  30.8629310   6.8499310  64.0359310
  31.4599310   7.1059310  63.3319310  31.1659310   7.3449310  64.7979310
  30.9779310   6.9459310  64.0429310  33.5439310  10.3569310  67.8409310
  33.8029310  11.0499310  67.2329310  32.6719310  10.6159310  68.1399310
  33.4659310  10.4789310  67.8009310  47.2319310   7.9469310  64.8219310
  48.0849310   7.6059310  64.5519310  47.2539310   7.9179310  65.7779310
  47.3439310   7.8989310  64.9089310  40.1619310   4.8579310  72.7269310
  39.4079310   4.5279310  72.2379310  39.9609310   4.6599310  73.6409310
  40.0399310   4.7899310  72.7809310  45.3779310   8.6179310  60.0369310
  45.7739310   8.9589310  60.8389310  45.8689310   9.0369310  59.3299310
  45.4909310   8.7149310  60.0489310  45.1069310   2.7039310  71.9989310
  45.7999310   2.8979310  72.6309310  44.4709310   3.4099310  72.1169310
  45.1139310   2.8189310  72.0949310  45.5719310  14.9739310  69.4739310
  45.0989310  15.8069310  69.4669310  45.0409310  14.3929310  68.9299310
  45.4429310  15.0059310  69.4039310  39.8479310  11.2749310  44.8809310
  39.6739310  11.4359310  45.8089310  39.0829310  10.7889310  44.5749310
  39.7279310  11.2329310  44.9609310  36.4189310   6.1719310  40.2119310
  36.2649310   6.6289310  41.0389310  37.1309310   5.5619310  40.4039310
  36.4899310   6.1519310  40.3419310  46.5799310  12.3309310  38.3979310
  45.7179310  12.6589310  38.1419310  46.4839310  11.3789310  38.3969310
  46.4569310  12.2509310  38.3649310  38.0169310  14.2179310  41.8639310
  37.2179310  13.6909310  41.8739310  38.3609310  14.1149310  40.9769310
  37.9589310  14.1369310  41.7519310  41.9249310   9.2029310  44.3309310
  41.4989310   8.5959310  43.7269310  41.2619310   9.8699310  44.5089310
  41.7859310   9.2109310  44.2769310  48.7959310   4.1259310  45.4249310
  48.0169310   4.2359310  45.9699310  49.1399310   5.0119310  45.3159310
  48.7399310   4.2529310  45.4809310  40.1269310   7.4419310  52.8569310
  39.9989310   6.5769310  53.2459310  40.5699310   7.2669310  52.0259310
  40.1669310   7.3089310  52.7999310  43.0029310   8.3939310  39.8759310
  43.7729310   8.4149310  40.4429310  43.3219310   8.0269310  39.0519310
  43.1419310   8.3499310  39.8429310  48.7389310   8.0309310  41.6059310
  48.3729310   8.6719310  42.2159310  47.9739310   7.6089310  41.2139310
  48.5939310   8.0589310  41.6339310  46.7209310   9.6309310  38.6229310
  46.7629310   9.4969310  37.6759310  47.6069310   9.8979310  38.8659310
  46.8399310   9.6479310  38.5329310  32.1239310   8.1089310  54.0069310
  31.2029310   7.8889310  53.8669310  32.2039310   8.2159310  54.9539310
  32.0159310   8.0939310  54.1099310  43.7139310  11.7979310  45.2119310
  43.8899310  12.6479310  44.8089310  42.9549310  11.4609310  44.7379310
  43.6399310  11.8639310  45.0999310  43.5039310  15.1229310  46.4639310
  44.0899310  15.8599310  46.2889310  42.7219310  15.3089310  45.9449310
  43.4789310  15.2409310  46.3749310  35.8259310   2.3779310  44.9839310
  35.4189310   2.3769310  44.1169310  35.3399310   3.0409310  45.4749310
  35.7119310   2.4629310  44.9359310  42.2929310   3.2629310  54.0009310
  42.8789310   3.5759310  54.6899310  41.5669310   3.8879310  54.0009310
  42.2749310   3.3829310  54.0889310  39.9129310   3.7639310  43.5329310
  39.0879310   3.7459310  43.0479310  39.6619310   3.5779310  44.4379310
  39.7749310   3.7379310  43.5869310  37.0269310  13.4289310  48.1499310
  36.7659310  13.0539310  48.9909310  37.7579310  12.8839310  47.8609310
  37.0869310  13.3109310  48.2199310  35.2649310  11.6219310  46.8649310
  34.5409310  11.9249310  46.3169310  35.8589310  12.3719310  46.9129310
  35.2489310  11.7569310  46.8009310  31.8139310   1.7759310  57.0549310
  31.6159310   1.8569310  56.1229310  31.0199310   2.0789310  57.4959310
  31.6869310   1.8249310  56.9919310  34.7379310   5.3859310  38.2029310
  34.1349310   6.1229310  38.1069310  35.3669310   5.6759310  38.8639310
  34.7409310   5.5169310  38.2749310  39.1649310  13.8479310  39.4959310
  39.6239310  13.0259310  39.6679310  39.8629310  14.4879310  39.3569310
  39.3129310  13.8249310  39.4999310  37.8879310   4.3389310  48.4779310
  38.7689310   4.6309310  48.7099310  37.9739310   4.0049310  47.5849310
  38.0119310   4.3339310  48.3929310  31.7819310  10.8019310  55.8119310
  31.0199310  11.3699310  55.6949310  31.9869310  10.4919310  54.9299310
  31.7099310  10.8349310  55.6839310  33.8529310  12.0969310  57.1489310
  34.3359310  12.6579310  56.5419310  33.4099310  11.4609310  56.5879310
  33.8579310  12.0879310  56.9999310  37.4789310  13.8329310  55.9469310
  38.0529310  13.7459310  56.7079310  37.4369310  14.7749310  55.7849310
  37.5469310  13.9419310  56.0229310  47.3139310   8.1659310  48.7839310
  47.7539310   8.6729310  49.4669310  46.6419310   7.6689310  49.2499310
  47.2849310   8.1669310  48.9309310  48.5289310   9.9339310  51.0119310
  47.8149310  10.5389310  50.8129310  49.2449310  10.4969310  51.3089310
  48.5299310  10.0829310  51.0249310  37.8339310   7.6869310  55.8479310
  37.6769310   6.7429310  55.8119310  37.7449310   7.9789310  54.9409310
  37.8019310   7.6029310  55.7269310  42.0409310  10.9949310  39.9499310
  42.3449310  10.1019310  40.1059310  42.5679310  11.5349310  40.5389310
  42.1469310  10.9499310  40.0449310  47.3059310   2.3309310  47.8529310
  48.2179310   2.3419310  48.1459310  47.3059310   1.7459310  47.0949310
  47.4229310   2.2569310  47.7939310  45.1509310   6.6679310  49.7039310
  44.2759310   6.4109310  49.4139310  45.5029310   5.8849310  50.1279310
  45.0839310   6.5349310  49.7209310  34.8599310  13.5839310  54.8619310
  34.6079310  14.4879310  55.0529310  35.7649310  13.5189310  55.1649310
  34.9439310  13.6919310  54.9249310  39.4959310   3.1679310  46.1669310
  39.5819310   2.3839310  46.7099310  39.9359310   3.8549310  46.6669310
  39.5629310   3.1559310  46.2999310  48.1739310  11.9079310  41.5029310
  48.2949310  12.7829310  41.1349310  48.3829310  11.3139310  40.7819310
  48.2159310  11.9439310  41.3629310  42.6219310  11.1919310  54.6369310
  43.2039310  11.0279310  55.3779310  42.0289310  11.8779310  54.9449310
  42.6199310  11.2589310  54.7709310  38.9239310  11.6559310  47.3759310
  38.4439310  10.8479310  47.5529310  39.6539310  11.6419310  47.9949310
  38.9559310  11.5509310  47.4779310  52.3359310   4.5729310  45.7599310
  52.3499310   4.2599310  46.6649310  52.2869310   5.5259310  45.8369310
  52.3319310   4.6549310  45.8859310  41.7289310   2.5089310  39.6429310
  41.1029310   1.7849310  39.6669310  41.9469310   2.6679310  40.5609310
  41.6769310   2.4369310  39.7629310  38.4669310   4.1569310  51.7629310
  37.6219310   3.8369310  52.0799310  38.9399310   3.3659310  51.5039310
  38.4189310   4.0149310  51.7709310  35.3939310   9.3429310  56.0969310
  36.2049310   8.8549310  55.9549310  35.1249310   9.6199310  55.2209310
  35.4629310   9.3159310  55.9659310  34.3019310  13.9149310  41.2199310
  33.7199310  14.4129310  41.7929310  34.5309310  14.5259310  40.5199310
  34.2569310  14.0569310  41.2039310  47.9009310   5.4739310  39.6439310
  47.4439310   5.2329310  40.4499310  48.8269310   5.3339310  39.8429310
  47.9609310   5.4249310  39.7729310  37.6559310   8.3829310  53.1249310
  38.5359310   8.0099310  53.0729310  37.1179310   7.8019310  52.5879310
  37.6999310   8.2609310  53.0499310  46.6449310  12.0939310  51.4819310
  46.2939310  11.9909310  52.3669310  46.7929310  13.0359310  51.3919310
  46.6189310  12.2009310  51.5839310  48.7819310  13.8609310  53.3609310
  48.9799310  13.4659310  54.2109310  48.1109310  14.5159310  53.5519310
  48.7209310  13.8939310  53.4939310  44.0999310   6.6399310  52.7739310
  43.5429310   6.2459310  52.1019310  43.5239310   7.2499310  53.2339310
  43.9549310   6.6679310  52.7469310  48.0139310   5.9009310  55.9679310
  47.1909310   6.2409310  55.6189310  47.8699310   5.8449310  56.9129310
  47.8909310   5.9369310  56.0439310  41.9269310   2.6269310  42.3069310
  41.1039310   2.9099310  42.7029310  42.6049310   3.0129310  42.8619310
  41.9089310   2.7119310  42.4289310  34.9389310   6.2179310  50.3999310
  34.5619310   6.0909310  51.2699310  34.3759310   5.7069310  49.8179310
  34.8189310   6.1369310  50.4369310  43.9459310   7.7279310  45.8549310
  44.4909310   8.2289310  46.4619310  43.2519310   8.3349310  45.5979310
  43.9269310   7.8689310  45.8999310  31.9289310   9.2939310  46.6759310
  32.3229310   9.2239310  45.8059310  32.5409310   8.8389310  47.2529310
  32.0579310   9.2269310  46.6379310  46.6499310   4.9739310  42.0479310
  46.6069310   5.5929310  42.7779310  46.2839310   4.1629310  42.3999310
  46.5979310   4.9499310  42.1869310  41.3999310   5.8379310  42.5269310
  40.7279310   5.1569310  42.5569310  41.4789310   6.0549310  41.5979310
  41.3239310   5.7789310  42.4119310  42.5859310  14.8169310  51.6449310
  42.0369310  14.7479310  50.8649310  42.9499310  13.9399310  51.7609310
  42.5629310  14.6959310  51.5599310  37.0199310   4.8119310  55.5959310
  36.9049310   4.5279310  54.6889310  36.1289310   4.9149310  55.9289310
  36.8909310   4.7889310  55.5219310  36.0649310   3.1389310  50.4419310
  35.4749310   2.3999310  50.2899310  36.6769310   3.1109310  49.7069310
  36.0679310   3.0409310  50.3279310  37.4499310   9.3309310  48.4739310
  37.4099310   8.3759310  48.4369310  36.9949310   9.5589310  49.2839310
  37.3869310   9.2379310  48.5729310  45.4149310   5.9839310  55.1559310
  44.7239310   5.3439310  55.3239310  45.2069310   6.3399310  54.2929310
  45.2999310   5.9469310  55.0669310  31.0329310   5.0859310  42.2929310
  31.6979310   5.6859310  42.6309310  30.2009310   5.5199310  42.4819310
  31.0119310   5.2179310  42.3609310  33.3659310   9.5309310  44.4949310
  34.0449310   9.2509310  45.1089310  33.4639310  10.4809310  44.4459310
  33.4649310   9.6169310  44.5679310  38.7799310   8.2669310  39.5819310
  38.3969310   7.9579310  38.7609310  39.0189310   9.1779310  39.4069310
  38.7619310   8.3439310  39.4549310  41.2929310  11.9419310  48.8839310
  41.2289310  11.4219310  49.6859310  41.8379310  12.6909310  49.1269310
  41.3539310  11.9709310  49.0179310  46.7919310  10.8379310  45.5029310
  45.8769310  10.8479310  45.2199310  46.9139310   9.9699310  45.8879310
  46.6899310  10.7279310  45.5159310  34.4449310   2.8019310  39.2979310
  33.5199310   2.5589310  39.3359310  34.4409310   3.7219310  39.0329310
  34.3269310   2.8889310  39.2689310  36.4139310   7.1549310  42.5869310
  37.2369310   7.6409310  42.5489310  36.4649310   6.6599310  43.4039310
  36.5259310   7.1539310  42.6859310  38.7089310   8.7919310  42.5889310
  38.1859310   9.4949310  42.9749310  38.7209310   8.9879310  41.6529310
  38.6439310   8.9069310  42.5189310  45.7519310   3.6589310  38.7529310
  46.2299310   3.3059310  38.0039310  46.2539310   4.4309310  39.0159310
  45.8769310   3.7129310  38.6909310  34.6459310   9.0949310  53.5829310
  34.6079310   9.4119310  52.6809310  33.7739310   8.7359310  53.7479310
  34.5289310   9.0889310  53.4889310  38.5539310  10.8349310  52.1579310
  37.7709310  11.2409310  51.7889310  38.2659310   9.9639310  52.4309310
  38.4169310  10.7749310  52.1459310  37.5799310   6.7919310  50.6369310
  37.9049310   5.9889310  51.0439310  36.7109310   6.5599310  50.3109310
  37.5099310   6.6599310  50.6469310  33.1959310   7.7259310  56.6059310
  33.9989310   8.2359310  56.4959310  32.7459310   8.1439310  57.3399310
  33.2409310   7.8449310  56.6859310  43.6919310   4.8739310  45.8659310
  44.1899310   4.6669310  45.0749310  43.8759310   5.7989310  46.0299310
  43.7789310   4.9659310  45.7859310  38.3169310   3.6199310  39.6069310
  37.8359310   2.8029310  39.4759310  38.7509310   3.7789310  38.7689310
  38.3109310   3.5359310  39.4829310  32.2809310   8.6569310  40.0649310
  33.0479310   8.3339310  40.5399310  31.5389310   8.4179310  40.6199310
  32.2839310   8.5849310  40.1969310  48.3799310  15.6459310  47.9339310
  48.2329310  14.7029310  48.0149310  49.0339310  15.8439310  48.6049310
  48.4449310  15.5499310  48.0299310  49.7129310  11.9239310  46.7199310
  48.8689310  12.3369310  46.9039310  49.5809310  11.0019310  46.9379310
  49.5879310  11.8589310  46.7709310  31.6189310   2.4129310  48.7609310
  32.4169310   2.0629310  48.3659310  31.5989310   2.0329310  49.6389310
  31.7179310   2.3189310  48.8229310  41.0129310   5.4699310  46.4889310
  40.6059310   6.2299310  46.0729310  41.8749310   5.4049310  46.0789310
  41.0709310   5.5589310  46.3829310  45.5499310   6.7089310  43.9709310
  46.2239310   7.1209310  44.5109310  44.7399310   7.1549310  44.2169310
  45.5329310   6.8189310  44.0709310  33.7039310   7.1999310  47.4739310
  34.6609310   7.1839310  47.4549310  33.4589310   6.3859310  47.9139310
  33.7949310   7.0939310  47.5279310  49.1719310   6.1379310  48.9569310
  48.7829310   5.6639310  49.6929310  48.6369310   6.9269310  48.8709310
  49.0539310   6.1779310  49.0399310  42.5459310   2.6859310  47.8229310
  43.1719310   3.1359310  47.2559310  42.4039310   1.8389310  47.3989310
  42.6079310   2.6349310  47.6959310  41.0809310  10.5629310  51.3219310
  41.4739310  11.3839310  51.6179310  40.1679310  10.6179310  51.6039310
  41.0149310  10.6749310  51.3959310  35.1049310   2.7239310  42.2959310
  35.0149310   2.4529310  41.3829310  34.2069310   2.8809310  42.5889310
  34.9779310   2.7099310  42.2169310  46.3049310   3.8469310  50.4709310
  46.0399310   3.1949310  51.1209310  46.5239310   3.3339310  49.6929310
  46.2989310   3.6979310  50.4549310  37.0509310   5.6399310  44.6959310
  37.2389310   4.8879310  44.1339310  37.9069310   6.0309310  44.8659310
  37.1839310   5.5939310  44.6459310  39.5009310  10.8469310  38.9789310
  40.3449310  10.8089310  39.4299310  39.7239310  11.0519310  38.0709310
  39.6379310  10.8679310  38.9209310  36.5519310   6.6369310  47.2479310
  36.8089310   6.2189310  46.4259310  36.6359310   5.9449310  47.9039310
  36.5959310   6.4949310  47.2269310  43.8639310  11.0919310  47.7069310
  43.9619310  11.3389310  46.7869310  43.0099310  11.4419310  47.9589310
  43.7669310  11.1679310  47.6219310  41.2539310  15.5059310  45.0459310
  41.0689310  14.6789310  44.5999310  40.9419310  16.1789310  44.4409310
  41.1899310  15.4859310  44.9109310  42.8419310  14.7409310  38.1359310
  42.9999310  15.5799310  37.7029310  43.1039310  14.8879310  39.0449310
  42.8959310  14.8669310  38.1969310  44.9519310  13.5179310  48.2459310
  44.4079310  14.1179310  47.7349310  44.5609310  12.6569310  48.0999310
  44.8329310  13.4849310  48.1619310  48.7269310   4.9269310  51.8689310
  47.8309310   4.6019310  51.7819310  48.6269310   5.8219310  52.1939310
  48.5989310   4.9999310  51.8999310  40.9229310   6.6139310  39.9069310
  41.6529310   7.2339310  39.8959310  40.1409310   7.1649310  39.8759310
  40.9159310   6.7639310  39.9009310  40.5549310   3.9949310  49.0229310
  40.1059310   3.2409310  49.4049310  41.2769310   3.6149310  48.5229310
  40.5899310   3.8499310  49.0079310  42.0899310   8.1189310  50.7349310
  41.8139310   8.9429310  51.1369310  43.0409310   8.1059310  50.8439310
  42.1769310   8.2229310  50.7999310  41.4459310  15.3419310  48.9839310
  42.2359310  15.8799310  48.9299310  40.8459310  15.7339310  48.3499310
  41.4699310  15.4609310  48.8959310  33.4759310   5.9669310  52.8719310
  32.7969310   6.6059310  53.0919310  33.0669310   5.1179310  53.0349310
  33.3359310   5.9399310  52.9209310  44.4359310  13.9719310  43.8359310
  44.0679310  14.5529310  44.5009310  45.3269310  14.2949310  43.7019310
  44.5029310  14.0879310  43.9039310  42.5409310   6.4089310  48.8209310
  42.2729310   7.0519310  49.4779310  41.7419310   6.2269310  48.3249310
  42.4039310   6.4679310  48.8409310  31.0829310   4.0469310  55.4409310
  30.4829310   4.7799310  55.5819310  31.6299310   4.0299310  56.2269310
  31.0759310   4.1389310  55.5599310  32.4389310   2.9479310  43.4839310
  32.8389310   3.5329310  44.1279310  31.9749310   3.5329310  42.8849310
  32.4309310   3.0979310  43.4899310  42.5179310   4.7429310  51.3829310
  42.3549310   5.0519310  50.4919310  41.6569310   4.4789310  51.7059310
  42.3869310   4.7489310  51.3109310  35.3149310   9.6629310  39.8129310
  35.4009310   9.6119310  38.8609310  34.7619310  10.4309310  39.9619310
  35.2549310   9.7549310  39.7099310  42.4499310   8.4059310  53.9189310
  41.6319310   8.2499310  53.4479310  42.4979310   9.3579310  54.0079310
  42.3519310   8.5079310  53.8699310  46.7999310   3.1019310  55.1499310
  47.5129310   2.4699310  55.2449310  47.2399310   3.9389310  55.0039310
  46.9469310   3.1279310  55.1429310  32.8289310   4.8839310  48.6719310
  32.0499310   5.3899310  48.9029310  32.5669310   3.9709310  48.7949310
  32.6959310   4.8319310  48.7169310  48.2729310  14.3789310  50.7189310
  48.5549310  14.2829310  51.6289310  47.4919310  14.9299310  50.7679310
  48.2089310  14.4369310  50.8419310  35.9249310   9.0409310  45.7779310
  35.8379310   9.8209310  46.3269310  35.9969310   8.3169310  46.4009310
  35.9229310   9.0479310  45.9279310  36.0269310   4.1819310  52.9619310
  35.9359310   4.0619310  52.0169310  35.3029310   4.7599310  53.1999310
  35.9229310   4.2409310  52.8709310  48.1939310  13.1569310  44.1539310
  48.2639310  12.5279310  44.8709310  48.2599310  12.6249310  43.3609310
  48.2109310  13.0089310  44.1439310  37.6519310   3.7439310  42.2999310
  38.0249310   3.6789310  41.4209310  36.7469310   3.4479310  42.1989310
  37.5839310   3.6969310  42.1749310  37.3509310  10.9009310  40.7339310
  36.6189310  10.4119310  40.3579310  38.0109310  10.9139310  40.0419310
  37.3409310  10.8399310  40.5979310  40.8419310   4.3119310  37.9239310
  40.8229310   4.9619310  38.6259310  41.1969310   3.5239310  38.3359310
  40.8849310   4.2949310  38.0659310  36.2119310  11.6099310  50.7029310
  35.6419310  12.2969310  51.0499310  35.7599310  10.7939310  50.9169310
  36.0809310  11.5939310  50.7749310  42.8039310  13.1909310  41.7939310
  42.1189310  13.1189310  42.4589310  43.6019310  13.3689310  42.2909310
  42.8179310  13.2039310  41.9429310  45.9669310   2.3999310  42.8939310
  45.7459310   2.1499310  43.7919310  46.7829310   1.9339310  42.7109310
  46.0429310   2.3079310  42.9859310  43.8129310  12.1629310  38.0409310
  43.4129310  13.0309310  38.0909310  43.3369310  11.6419310  38.6879310
  43.7009310  12.2079310  38.1299310  37.1919310  10.4839310  43.8969310
  36.5559310  10.0289310  44.4479310  36.7039310  11.2179310  43.5239310
  37.0489310  10.5199310  43.9199310  43.0699310  12.1549310  52.1019310
  42.8669310  11.8449310  52.9839310  43.5839310  11.4469310  51.7119310
  43.1099310  12.0239310  52.1649310  48.6579310   2.4239310  40.7299310
  47.8349310   1.9369310  40.6819310  48.4059310   3.2879310  41.0579310
  48.5209310   2.4719310  40.7659310  45.7149310   9.7569310  54.7489310
  45.0749310   9.2239310  55.2209310  45.6769310   9.4339310  53.8479310
  45.6279310   9.6469310  54.6939310  39.4819310  12.1249310  54.8839310
  39.0949310  11.7599310  54.0879310  38.8339310  12.7539310  55.1989310
  39.3489310  12.1579310  54.8229310  31.8419310  11.4789310  52.2529310
  31.4599310  12.3219310  52.4969310  32.6659310  11.7049310  51.8219310
  31.8979310  11.6159310  52.2289310  48.3819310   7.5939310  52.5659310
  47.4909310   7.8099310  52.8439310  48.6589310   8.3469310  52.0439310
  48.3029310   7.7179310  52.5349310  47.4499310   9.6159310  42.9979310
  47.4719310   9.7319310  43.9479310  47.6229310  10.4889310  42.6469310
  47.4749310   9.7429310  43.0749310  46.8249310  15.5559310  43.3049310
  46.5609310  15.5209310  42.3859310  47.4469310  14.8349310  43.4039310
  46.8709310  15.4589310  43.1999310  43.9989310  15.5519310  40.8159310
  43.4829310  14.8669310  41.2419310  43.5159310  16.3589310  40.9899310
  43.8709310  15.5669310  40.8929310  32.4899310   3.4629310  53.1999310
  31.9239310   3.8239310  52.5179310  31.9939310   3.5789310  54.0099310
  32.3539310   3.5239310  53.2159310  43.7359310  17.0949310  49.1169310
  44.5109310  16.9389310  48.5779310  43.7049310  18.0459310  49.2229310
  43.8309310  17.1969310  49.0619310  40.3059310  13.5069310  43.3459310
  40.0679310  12.6939310  43.7899310  39.5009310  13.7849310  42.9089310
  40.1729310  13.4389310  43.3469310  45.4989310  12.9269310  54.6529310
  45.7689310  12.0229310  54.8129310  44.5469310  12.9139310  54.7539310
  45.4119310  12.8099310  54.6869310  45.8089310   8.6329310  52.3499310
  45.1989310   7.8969310  52.4059310  45.3769310   9.2569310  51.7669310
  45.6759310   8.6179310  52.2829310  34.9069310   9.2209310  50.7749310
  34.4459310   9.5649310  50.0099310  34.9879310   8.2829310  50.6029310
  34.8579310   9.1449310  50.6549310  33.1029310   6.8619310  42.9599310
  34.0589310   6.8939310  42.9869310  32.8319310   7.7789310  42.9979310
  33.1909310   6.9829310  42.9679310  37.9429310   2.3209310  55.9029310
  37.1779310   1.9239310  56.3209310  37.6889310   3.2319310  55.7549310
  37.8119310   2.3869310  55.9379310  43.7709310   4.4129310  43.3149310
  44.3909310   4.8569310  42.7359310  42.9609310   4.9169310  43.2299310
  43.7469310   4.5349310  43.2299310  30.3909310  10.4649310  39.2759310
  31.0189310   9.9419310  39.7749310  30.8849310  10.7709310  38.5149310
  30.5349310  10.4369310  39.2429310  36.0629310  12.5489310  42.5469310
  35.3629310  12.9469310  42.0299310  36.4949310  11.9459310  41.9409310
  36.0289310  12.5229310  42.4029310  44.6639310  10.4919310  50.3689310
  44.4909310  10.4149310  49.4309310  45.4469310  11.0389310  50.4239310
  44.7419310  10.5519310  50.2559310  39.4819310   6.8759310  44.6879310
  39.9959310   6.2759310  44.1479310  39.2079310   7.5659310  44.0839310
  39.5119310   6.8869310  44.5419310  46.5099310  15.4429310  53.9789310
  46.9189310  15.6149310  54.8269310  46.2409310  14.5259310  54.0239310
  46.5279310  15.3479310  54.0929310  49.1769310  14.7349310  40.9769310
  49.7639310  14.5579310  40.2419310  48.5859310  15.4149310  40.6529310
  49.1759310  14.7989310  40.8409310  31.9689310  14.2309310  38.7339310
  32.5259310  13.4719310  38.9059310  32.5369310  14.9849310  38.8899310
  32.1129310  14.2299310  38.7759310  49.0169310  13.0899310  55.9719310
  48.2449310  13.1209310  56.5359310  49.6339310  13.6999310  56.3779310
  48.9969310  13.1719310  56.0969310  43.9179310   8.2169310  56.0409310
  43.1069310   8.2549310  55.5339310  44.2819310   7.3539310  55.8459310
  43.8609310   8.1119310  55.9509310  30.8629310   6.8499310  45.1759310
  31.4599310   7.1059310  44.4719310  31.1659310   7.3449310  45.9379310
  30.9779310   6.9459310  45.1829310  33.5439310  10.3569310  48.9809310
  33.8029310  11.0499310  48.3729310  32.6719310  10.6159310  49.2799310
  33.4659310  10.4789310  48.9409310  47.2319310   7.9469310  45.9619310
  48.0849310   7.6059310  45.6919310  47.2539310   7.9179310  46.9179310
  47.3439310   7.8989310  46.0489310  40.1619310   4.8579310  53.8669310
  39.4079310   4.5279310  53.3779310  39.9609310   4.6599310  54.7809310
  40.0399310   4.7899310  53.9209310  43.7119310   4.1809310  55.9359310
  42.9279310   4.1419310  56.4839310  44.3489310   3.6299310  56.3899310
  43.6929310   4.1059310  56.0639310  45.3779310   8.6179310  41.1769310
  45.7739310   8.9589310  41.9789310  45.8689310   9.0369310  40.4699310
  45.4909310   8.7149310  41.1889310  45.1069310   2.7039310  53.1389310
  45.7999310   2.8979310  53.7709310  44.4709310   3.4099310  53.2569310
  45.1139310   2.8189310  53.2349310  45.5719310  14.9739310  50.6139310
  45.0989310  15.8069310  50.6069310  45.0409310  14.3929310  50.0699310
  45.4429310  15.0059310  50.5439310  35.0829310  13.8309310  32.8579310
  34.1289310  13.7629310  32.8259310  35.2719310  14.1379310  33.7439310
  34.9849310  13.8619310  32.9669310  39.8479310  11.2749310  26.0209310
  39.6739310  11.4359310  26.9489310  39.0829310  10.7889310  25.7149310
  39.7279310  11.2329310  26.1009310  36.4189310   6.1719310  21.3519310
  36.2649310   6.6289310  22.1789310  37.1309310   5.5619310  21.5439310
  36.4899310   6.1519310  21.4819310  46.5799310  12.3309310  19.5379310
  45.7179310  12.6589310  19.2819310  46.4839310  11.3789310  19.5369310
  46.4569310  12.2509310  19.5049310  33.3059310  12.4279310  26.3149310
  33.3439310  13.3209310  25.9709310  32.5069310  12.4069310  26.8409310
  33.2089310  12.5399310  26.3379310  38.0169310  14.2179310  23.0039310
  37.2179310  13.6909310  23.0139310  38.3609310  14.1149310  22.1169310
  37.9589310  14.1369310  22.8919310  41.9249310   9.2029310  25.4709310
  41.4989310   8.5959310  24.8669310  41.2619310   9.8699310  25.6489310
  41.7859310   9.2109310  25.4169310  48.7959310   4.1259310  26.5649310
  48.0169310   4.2359310  27.1099310  49.1399310   5.0119310  26.4559310
  48.7399310   4.2529310  26.6209310  40.1269310   7.4419310  33.9969310
  39.9989310   6.5769310  34.3859310  40.5699310   7.2669310  33.1659310
  40.1669310   7.3089310  33.9399310  43.0029310   8.3939310  21.0159310
  43.7729310   8.4149310  21.5829310  43.3219310   8.0269310  20.1919310
  43.1419310   8.3499310  20.9829310  48.7389310   8.0309310  22.7459310
  48.3729310   8.6719310  23.3559310  47.9739310   7.6089310  22.3539310
  48.5939310   8.0589310  22.7739310  46.7209310   9.6309310  19.7629310
  46.7629310   9.4969310  18.8159310  47.6069310   9.8979310  20.0059310
  46.8399310   9.6479310  19.6729310  32.1239310   8.1089310  35.1469310
  31.2029310   7.8889310  35.0069310  32.2039310   8.2159310  36.0939310
  32.0159310   8.0939310  35.2499310  43.7139310  11.7979310  26.3519310
  43.8899310  12.6479310  25.9489310  42.9549310  11.4609310  25.8779310
  43.6399310  11.8639310  26.2399310  43.5039310  15.1229310  27.6039310
  44.0899310  15.8599310  27.4289310  42.7219310  15.3089310  27.0849310
  43.4789310  15.2409310  27.5149310  35.8259310   2.3779310  26.1239310
  35.4189310   2.3769310  25.2569310  35.3399310   3.0409310  26.6149310
  35.7119310   2.4629310  26.0759310  42.2929310   3.2629310  35.1409310
  42.8789310   3.5759310  35.8299310  41.5669310   3.8879310  35.1409310
  42.2749310   3.3829310  35.2289310  39.9129310   3.7639310  24.6729310
  39.0879310   3.7459310  24.1879310  39.6619310   3.5779310  25.5779310
  39.7749310   3.7379310  24.7269310  37.0269310  13.4289310  29.2899310
  36.7659310  13.0539310  30.1309310  37.7579310  12.8839310  29.0009310
  37.0869310  13.3109310  29.3599310  35.2649310  11.6219310  28.0049310
  34.5409310  11.9249310  27.4569310  35.8589310  12.3719310  28.0529310
  35.2489310  11.7569310  27.9409310  31.8139310   1.7759310  38.1949310
  31.6159310   1.8569310  37.2629310  31.0199310   2.0789310  38.6359310
  31.6869310   1.8249310  38.1319310  34.7379310   5.3859310  19.3429310
  34.1349310   6.1229310  19.2469310  35.3669310   5.6759310  20.0039310
  34.7409310   5.5169310  19.4149310  39.1649310  13.8479310  20.6359310
  39.6239310  13.0259310  20.8079310  39.8629310  14.4879310  20.4969310
  39.3129310  13.8249310  20.6399310  37.8879310   4.3389310  29.6179310
  38.7689310   4.6309310  29.8499310  37.9739310   4.0049310  28.7249310
  38.0119310   4.3339310  29.5329310  31.7819310  10.8019310  36.9519310
  31.0199310  11.3699310  36.8349310  31.9869310  10.4919310  36.0699310
  31.7099310  10.8349310  36.8239310  33.8529310  12.0969310  38.2889310
  34.3359310  12.6579310  37.6819310  33.4099310  11.4609310  37.7279310
  33.8579310  12.0879310  38.1399310  37.4789310  13.8329310  37.0869310
  38.0529310  13.7459310  37.8479310  37.4369310  14.7749310  36.9249310
  37.5469310  13.9419310  37.1629310  47.3139310   8.1659310  29.9239310
  47.7539310   8.6729310  30.6069310  46.6419310   7.6689310  30.3899310
  47.2849310   8.1669310  30.0709310  48.5289310   9.9339310  32.1519310
  47.8149310  10.5389310  31.9529310  49.2449310  10.4969310  32.4489310
  48.5299310  10.0829310  32.1649310  37.8339310   7.6869310  36.9879310
  37.6769310   6.7429310  36.9519310  37.7449310   7.9789310  36.0809310
  37.8019310   7.6029310  36.8669310  42.0409310  10.9949310  21.0899310
  42.3449310  10.1019310  21.2459310  42.5679310  11.5349310  21.6789310
  42.1469310  10.9499310  21.1849310  47.3059310   2.3309310  28.9929310
  48.2179310   2.3419310  29.2859310  47.3059310   1.7459310  28.2349310
  47.4229310   2.2569310  28.9339310  45.1509310   6.6679310  30.8439310
  44.2759310   6.4109310  30.5539310  45.5029310   5.8849310  31.2679310
  45.0839310   6.5349310  30.8609310  34.8599310  13.5839310  36.0019310
  34.6079310  14.4879310  36.1929310  35.7649310  13.5189310  36.3049310
  34.9439310  13.6919310  36.0649310  39.4959310   3.1679310  27.3069310
  39.5819310   2.3839310  27.8499310  39.9359310   3.8549310  27.8069310
  39.5629310   3.1559310  27.4399310  48.1739310  11.9079310  22.6429310
  48.2949310  12.7829310  22.2749310  48.3829310  11.3139310  21.9219310
  48.2159310  11.9439310  22.5029310  32.5709310  15.3899310  23.8259310
  31.7899310  15.2589310  23.2879310  32.5409310  16.3149310  24.0699310
  32.4669310  15.4919310  23.7879310  42.6219310  11.1919310  35.7769310
  43.2039310  11.0279310  36.5179310  42.0289310  11.8779310  36.0849310
  42.6199310  11.2589310  35.9109310  38.9239310  11.6559310  28.5159310
  38.4439310  10.8479310  28.6929310  39.6539310  11.6419310  29.1349310
  38.9559310  11.5509310  28.6179310  52.3359310   4.5729310  26.8999310
  52.3499310   4.2599310  27.8049310  52.2869310   5.5259310  26.9769310
  52.3319310   4.6549310  27.0259310  41.7289310   2.5089310  20.7829310
  41.1029310   1.7849310  20.8069310  41.9469310   2.6679310  21.7009310
  41.6769310   2.4369310  20.9029310  38.4669310   4.1569310  32.9029310
  37.6219310   3.8369310  33.2199310  38.9399310   3.3659310  32.6439310
  38.4189310   4.0149310  32.9109310  35.3939310   9.3429310  37.2369310
  36.2049310   8.8549310  37.0949310  35.1249310   9.6199310  36.3609310
  35.4629310   9.3159310  37.1059310  34.3019310  13.9149310  22.3599310
  33.7199310  14.4129310  22.9329310  34.5309310  14.5259310  21.6599310
  34.2569310  14.0569310  22.3439310  47.9009310   5.4739310  20.7839310
  47.4439310   5.2329310  21.5899310  48.8269310   5.3339310  20.9829310
  47.9609310   5.4249310  20.9129310  37.6559310   8.3829310  34.2649310
  38.5359310   8.0099310  34.2129310  37.1179310   7.8019310  33.7279310
  37.6999310   8.2609310  34.1899310  46.6449310  12.0939310  32.6219310
  46.2939310  11.9909310  33.5069310  46.7929310  13.0359310  32.5319310
  46.6189310  12.2009310  32.7239310  48.7819310  13.8609310  34.5009310
  48.9799310  13.4659310  35.3509310  48.1109310  14.5159310  34.6919310
  48.7209310  13.8939310  34.6339310  44.0999310   6.6399310  33.9139310
  43.5429310   6.2459310  33.2419310  43.5239310   7.2499310  34.3739310
  43.9549310   6.6679310  33.8869310  48.0139310   5.9009310  37.1079310
  47.1909310   6.2409310  36.7589310  47.8699310   5.8449310  38.0529310
  47.8909310   5.9369310  37.1839310  41.9269310   2.6269310  23.4469310
  41.1039310   2.9099310  23.8429310  42.6049310   3.0129310  24.0019310
  41.9089310   2.7119310  23.5689310  34.9389310   6.2179310  31.5399310
  34.5619310   6.0909310  32.4099310  34.3759310   5.7069310  30.9579310
  34.8189310   6.1369310  31.5769310  43.9459310   7.7279310  26.9949310
  44.4909310   8.2289310  27.6019310  43.2519310   8.3349310  26.7379310
  43.9269310   7.8689310  27.0399310  31.9289310   9.2939310  27.8159310
  32.3229310   9.2239310  26.9459310  32.5409310   8.8389310  28.3929310
  32.0579310   9.2269310  27.7779310  46.6499310   4.9739310  23.1879310
  46.6069310   5.5929310  23.9179310  46.2839310   4.1629310  23.5399310
  46.5979310   4.9499310  23.3269310  41.3999310   5.8379310  23.6669310
  40.7279310   5.1569310  23.6969310  41.4789310   6.0549310  22.7379310
  41.3239310   5.7789310  23.5519310  42.5859310  14.8169310  32.7849310
  42.0369310  14.7479310  32.0049310  42.9499310  13.9399310  32.9009310
  42.5629310  14.6959310  32.6999310  37.0199310   4.8119310  36.7359310
  36.9049310   4.5279310  35.8289310  36.1289310   4.9149310  37.0689310
  36.8909310   4.7889310  36.6619310  36.0649310   3.1389310  31.5819310
  35.4749310   2.3999310  31.4299310  36.6769310   3.1109310  30.8469310
  36.0679310   3.0409310  31.4679310  37.4499310   9.3309310  29.6139310
  37.4099310   8.3759310  29.5769310  36.9949310   9.5589310  30.4239310
  37.3869310   9.2379310  29.7129310  45.4149310   5.9839310  36.2959310
  44.7239310   5.3439310  36.4639310  45.2069310   6.3399310  35.4329310
  45.2999310   5.9469310  36.2069310  31.0329310   5.0859310  23.4329310
  31.6979310   5.6859310  23.7709310  30.2009310   5.5199310  23.6219310
  31.0119310   5.2179310  23.5009310  33.3659310   9.5309310  25.6349310
  34.0449310   9.2509310  26.2489310  33.4639310  10.4809310  25.5859310
  33.4649310   9.6169310  25.7079310  38.7799310   8.2669310  20.7219310
  38.3969310   7.9579310  19.9009310  39.0189310   9.1779310  20.5469310
  38.7619310   8.3439310  20.5949310  41.2929310  11.9419310  30.0239310
  41.2289310  11.4219310  30.8259310  41.8379310  12.6909310  30.2669310
  41.3539310  11.9709310  30.1579310  46.7919310  10.8379310  26.6429310
  45.8769310  10.8479310  26.3599310  46.9139310   9.9699310  27.0279310
  46.6899310  10.7279310  26.6559310  34.4449310   2.8019310  20.4379310
  33.5199310   2.5589310  20.4759310  34.4409310   3.7219310  20.1729310
  34.3269310   2.8889310  20.4089310  36.4139310   7.1549310  23.7269310
  37.2369310   7.6409310  23.6889310  36.4649310   6.6599310  24.5439310
  36.5259310   7.1539310  23.8259310  33.1049310  15.0299310  27.8029310
  32.5629310  15.4529310  28.4699310  34.0039310  15.2269310  28.0649310
  33.1499310  15.1099310  27.9219310  38.7089310   8.7919310  23.7289310
  38.1859310   9.4949310  24.1149310  38.7209310   8.9879310  22.7929310
  38.6439310   8.9069310  23.6589310  45.7519310   3.6589310  19.8929310
  46.2299310   3.3059310  19.1439310  46.2539310   4.4309310  20.1559310
  45.8769310   3.7129310  19.8309310  34.6459310   9.0949310  34.7229310
  34.6079310   9.4119310  33.8209310  33.7739310   8.7359310  34.8879310
  34.5289310   9.0889310  34.6289310  38.5539310  10.8349310  33.2979310
  37.7709310  11.2409310  32.9289310  38.2659310   9.9639310  33.5709310
  38.4169310  10.7749310  33.2859310  32.2919310  12.8469310  30.0409310
  32.9469310  13.2079310  29.4439310  31.6139310  12.4919310  29.4659310
  32.2889310  12.8479310  29.8909310  37.5799310   6.7919310  31.7769310
  37.9049310   5.9889310  32.1839310  36.7109310   6.5599310  31.4509310
  37.5099310   6.6599310  31.7869310  33.1959310   7.7259310  37.7459310
  33.9989310   8.2359310  37.6359310  32.7459310   8.1439310  38.4799310
  33.2409310   7.8449310  37.8259310  43.6919310   4.8739310  27.0059310
  44.1899310   4.6669310  26.2149310  43.8759310   5.7989310  27.1699310
  43.7789310   4.9659310  26.9259310  38.3169310   3.6199310  20.7469310
  37.8359310   2.8029310  20.6159310  38.7509310   3.7789310  19.9089310
  38.3109310   3.5359310  20.6229310  32.2809310   8.6569310  21.2049310
  33.0479310   8.3339310  21.6799310  31.5389310   8.4179310  21.7599310
  32.2839310   8.5849310  21.3369310  48.3799310  15.6459310  29.0739310
  48.2329310  14.7029310  29.1549310  49.0339310  15.8439310  29.7449310
  48.4449310  15.5499310  29.1699310  49.7129310  11.9239310  27.8599310
  48.8689310  12.3369310  28.0439310  49.5809310  11.0019310  28.0779310
  49.5879310  11.8589310  27.9109310  31.6189310   2.4129310  29.9009310
  32.4169310   2.0629310  29.5059310  31.5989310   2.0329310  30.7789310
  31.7179310   2.3189310  29.9629310  41.0129310   5.4699310  27.6289310
  40.6059310   6.2299310  27.2129310  41.8749310   5.4049310  27.2189310
  41.0709310   5.5589310  27.5229310  45.5499310   6.7089310  25.1109310
  46.2239310   7.1209310  25.6509310  44.7399310   7.1549310  25.3569310
  45.5329310   6.8189310  25.2109310  33.7039310   7.1999310  28.6139310
  34.6609310   7.1839310  28.5949310  33.4589310   6.3859310  29.0539310
  33.7949310   7.0939310  28.6679310  49.1719310   6.1379310  30.0969310
  48.7829310   5.6639310  30.8329310  48.6369310   6.9269310  30.0109310
  49.0539310   6.1779310  30.1799310  42.5459310   2.6859310  28.9629310
  43.1719310   3.1359310  28.3959310  42.4039310   1.8389310  28.5389310
  42.6079310   2.6349310  28.8359310  41.0809310  10.5629310  32.4619310
  41.4739310  11.3839310  32.7579310  40.1679310  10.6179310  32.7439310
  41.0149310  10.6749310  32.5359310  35.1049310   2.7239310  23.4359310
  35.0149310   2.4529310  22.5229310  34.2069310   2.8809310  23.7289310
  34.9779310   2.7099310  23.3569310  46.3049310   3.8469310  31.6109310
  46.0399310   3.1949310  32.2609310  46.5239310   3.3339310  30.8329310
  46.2989310   3.6979310  31.5949310  37.0509310   5.6399310  25.8359310
  37.2389310   4.8879310  25.2739310  37.9069310   6.0309310  26.0059310
  37.1839310   5.5939310  25.7859310  39.5009310  10.8469310  20.1189310
  40.3449310  10.8089310  20.5699310  39.7239310  11.0519310  19.2109310
  39.6379310  10.8679310  20.0609310  36.5519310   6.6369310  28.3879310
  36.8089310   6.2189310  27.5659310  36.6359310   5.9449310  29.0439310
  36.5959310   6.4949310  28.3669310  43.8639310  11.0919310  28.8469310
  43.9619310  11.3389310  27.9269310  43.0099310  11.4419310  29.0989310
  43.7669310  11.1679310  28.7619310  41.2539310  15.5059310  26.1859310
  41.0689310  14.6789310  25.7399310  40.9419310  16.1789310  25.5809310
  41.1899310  15.4859310  26.0509310  42.8419310  14.7409310  19.2759310
  42.9999310  15.5799310  18.8429310  43.1039310  14.8879310  20.1849310
  42.8959310  14.8669310  19.3369310  44.9519310  13.5179310  29.3859310
  44.4079310  14.1179310  28.8749310  44.5609310  12.6569310  29.2399310
  44.8329310  13.4849310  29.3019310  48.7269310   4.9269310  33.0089310
  47.8309310   4.6019310  32.9219310  48.6269310   5.8219310  33.3339310
  48.5989310   4.9999310  33.0399310  39.0439310  15.8859310  28.3589310
  39.0099310  15.1989310  29.0239310  39.5199310  15.4909310  27.6289310
  39.0999310  15.7479310  28.3509310  40.9229310   6.6139310  21.0469310
  41.6529310   7.2339310  21.0359310  40.1409310   7.1649310  21.0159310
  40.9159310   6.7639310  21.0409310  40.5549310   3.9949310  30.1629310
  40.1059310   3.2409310  30.5449310  41.2769310   3.6149310  29.6629310
  40.5899310   3.8499310  30.1479310  42.0899310   8.1189310  31.8749310
  41.8139310   8.9429310  32.2769310  43.0409310   8.1059310  31.9839310
  42.1769310   8.2229310  31.9399310  41.4459310  15.3419310  30.1239310
  42.2359310  15.8799310  30.0699310  40.8459310  15.7339310  29.4899310
  41.4699310  15.4609310  30.0359310  33.4759310   5.9669310  34.0119310
  32.7969310   6.6059310  34.2319310  33.0669310   5.1179310  34.1749310
  33.3359310   5.9399310  34.0609310  44.4359310  13.9719310  24.9759310
  44.0679310  14.5529310  25.6409310  45.3269310  14.2949310  24.8419310
  44.5029310  14.0879310  25.0439310  42.5409310   6.4089310  29.9609310
  42.2729310   7.0519310  30.6179310  41.7419310   6.2269310  29.4649310
  42.4039310   6.4679310  29.9809310  31.0829310   4.0469310  36.5809310
  30.4829310   4.7799310  36.7219310  31.6299310   4.0299310  37.3669310
  31.0759310   4.1389310  36.6999310  32.4389310   2.9479310  24.6239310
  32.8389310   3.5329310  25.2679310  31.9749310   3.5329310  24.0249310
  32.4309310   3.0979310  24.6299310  42.5179310   4.7429310  32.5229310
  42.3549310   5.0519310  31.6319310  41.6569310   4.4789310  32.8459310
  42.3869310   4.7489310  32.4509310  35.3149310   9.6629310  20.9529310
  35.4009310   9.6119310  20.0009310  34.7619310  10.4309310  21.1019310
  35.2549310   9.7549310  20.8499310  42.4499310   8.4059310  35.0589310
  41.6319310   8.2499310  34.5879310  42.4979310   9.3579310  35.1479310
  42.3519310   8.5079310  35.0099310  46.7999310   3.1019310  36.2899310
  47.5129310   2.4699310  36.3849310  47.2399310   3.9389310  36.1439310
  46.9469310   3.1279310  36.2829310  32.8289310   4.8839310  29.8119310
  32.0499310   5.3899310  30.0429310  32.5669310   3.9709310  29.9349310
  32.6959310   4.8319310  29.8569310  48.2729310  14.3789310  31.8589310
  48.5549310  14.2829310  32.7689310  47.4919310  14.9299310  31.9079310
  48.2089310  14.4369310  31.9819310  35.9249310   9.0409310  26.9179310
  35.8379310   9.8209310  27.4669310  35.9969310   8.3169310  27.5409310
  35.9229310   9.0479310  27.0679310  36.0269310   4.1819310  34.1019310
  35.9359310   4.0619310  33.1569310  35.3029310   4.7599310  34.3399310
  35.9229310   4.2409310  34.0109310  48.1939310  13.1569310  25.2939310
  48.2639310  12.5279310  26.0109310  48.2599310  12.6249310  24.5009310
  48.2109310  13.0089310  25.2839310  37.6519310   3.7439310  23.4399310
  38.0249310   3.6789310  22.5609310  36.7469310   3.4479310  23.3389310
  37.5839310   3.6969310  23.3149310  37.3509310  10.9009310  21.8739310
  36.6189310  10.4119310  21.4979310  38.0109310  10.9139310  21.1819310
  37.3409310  10.8399310  21.7379310  32.2969310  14.2459310  32.4449310
  32.0039310  13.9729310  31.5749310  31.9889310  15.1479310  32.5289310
  32.2199310  14.3259310  32.3439310  40.8419310   4.3119310  19.0639310
  40.8229310   4.9619310  19.7659310  41.1969310   3.5239310  19.4759310
  40.8849310   4.2949310  19.2059310  36.2119310  11.6099310  31.8429310
  35.6419310  12.2969310  32.1899310  35.7599310  10.7939310  32.0569310
  36.0809310  11.5939310  31.9149310  42.8039310  13.1909310  22.9339310
  42.1189310  13.1189310  23.5989310  43.6019310  13.3689310  23.4309310
  42.8179310  13.2039310  23.0829310  45.9669310   2.3999310  24.0339310
  45.7459310   2.1499310  24.9319310  46.7829310   1.9339310  23.8509310
  46.0429310   2.3079310  24.1259310  43.8129310  12.1629310  19.1809310
  43.4129310  13.0309310  19.2309310  43.3369310  11.6419310  19.8279310
  43.7009310  12.2079310  19.2699310  37.1919310  10.4839310  25.0369310
  36.5559310  10.0289310  25.5879310  36.7039310  11.2179310  24.6639310
  37.0489310  10.5199310  25.0599310  43.0699310  12.1549310  33.2419310
  42.8669310  11.8449310  34.1239310  43.5839310  11.4469310  32.8519310
  43.1099310  12.0239310  33.3049310  48.6579310   2.4239310  21.8699310
  47.8349310   1.9369310  21.8219310  48.4059310   3.2879310  22.1979310
  48.5209310   2.4719310  21.9059310  45.7149310   9.7569310  35.8889310
  45.0749310   9.2239310  36.3609310  45.6769310   9.4339310  34.9879310
  45.6279310   9.6469310  35.8339310  39.4819310  12.1249310  36.0239310
  39.0949310  11.7599310  35.2279310  38.8339310  12.7539310  36.3389310
  39.3489310  12.1579310  35.9629310  31.8419310  11.4789310  33.3929310
  31.4599310  12.3219310  33.6369310  32.6659310  11.7049310  32.9619310
  31.8979310  11.6159310  33.3689310  48.3819310   7.5939310  33.7059310
  47.4909310   7.8099310  33.9839310  48.6589310   8.3469310  33.1839310
  48.3029310   7.7179310  33.6749310  47.4499310   9.6159310  24.1379310
  47.4719310   9.7319310  25.0879310  47.6229310  10.4889310  23.7869310
  47.4749310   9.7429310  24.2149310  46.8249310  15.5559310  24.4449310
  46.5609310  15.5209310  23.5259310  47.4469310  14.8349310  24.5439310
  46.8709310  15.4589310  24.3399310  43.9989310  15.5519310  21.9559310
  43.4829310  14.8669310  22.3819310  43.5159310  16.3589310  22.1299310
  43.8709310  15.5669310  22.0329310  32.4899310   3.4629310  34.3399310
  31.9239310   3.8239310  33.6579310  31.9939310   3.5789310  35.1499310
  32.3539310   3.5239310  34.3559310  43.7359310  17.0949310  30.2569310
  44.5109310  16.9389310  29.7179310  43.7049310  18.0459310  30.3629310
  43.8309310  17.1969310  30.2019310  40.3059310  13.5069310  24.4859310
  40.0679310  12.6939310  24.9299310  39.5009310  13.7849310  24.0489310
  40.1729310  13.4389310  24.4869310  45.4989310  12.9269310  35.7929310
  45.7689310  12.0229310  35.9529310  44.5469310  12.9139310  35.8939310
  45.4119310  12.8099310  35.8269310  45.8089310   8.6329310  33.4899310
  45.1989310   7.8969310  33.5459310  45.3769310   9.2569310  32.9069310
  45.6759310   8.6179310  33.4229310  34.9069310   9.2209310  31.9149310
  34.4459310   9.5649310  31.1499310  34.9879310   8.2829310  31.7429310
  34.8579310   9.1449310  31.7949310  33.1029310   6.8619310  24.0999310
  34.0589310   6.8939310  24.1269310  32.8319310   7.7789310  24.1379310
  33.1909310   6.9829310  24.1079310  37.9429310   2.3209310  37.0429310
  37.1779310   1.9239310  37.4609310  37.6889310   3.2319310  36.8949310
  37.8119310   2.3869310  37.0779310  43.7709310   4.4129310  24.4549310
  44.3909310   4.8569310  23.8759310  42.9609310   4.9169310  24.3699310
  43.7469310   4.5349310  24.3699310  30.3909310  10.4649310  20.4159310
  31.0189310   9.9419310  20.9149310  30.8849310  10.7709310  19.6549310
  30.5349310  10.4369310  20.3829310  36.0629310  12.5489310  23.6869310
  35.3629310  12.9469310  23.1699310  36.4949310  11.9459310  23.0809310
  36.0289310  12.5229310  23.5429310  44.6639310  10.4919310  31.5089310
  44.4909310  10.4149310  30.5709310  45.4469310  11.0389310  31.5639310
  44.7419310  10.5519310  31.3959310  39.4819310   6.8759310  25.8279310
  39.9959310   6.2759310  25.2879310  39.2079310   7.5659310  25.2239310
  39.5119310   6.8869310  25.6819310  46.5099310  15.4429310  35.1189310
  46.9189310  15.6149310  35.9669310  46.2409310  14.5259310  35.1639310
  46.5279310  15.3479310  35.2329310  49.1769310  14.7349310  22.1169310
  49.7639310  14.5579310  21.3819310  48.5859310  15.4149310  21.7929310
  49.1759310  14.7989310  21.9809310  31.9689310  14.2309310  19.8739310
  32.5259310  13.4719310  20.0459310  32.5369310  14.9849310  20.0299310
  32.1129310  14.2299310  19.9159310  49.0169310  13.0899310  37.1119310
  48.2449310  13.1209310  37.6759310  49.6339310  13.6999310  37.5179310
  48.9969310  13.1719310  37.2369310  43.9179310   8.2169310  37.1809310
  43.1069310   8.2549310  36.6739310  44.2819310   7.3539310  36.9859310
  43.8609310   8.1119310  37.0909310  30.8629310   6.8499310  26.3159310
  31.4599310   7.1059310  25.6119310  31.1659310   7.3449310  27.0779310
  30.9779310   6.9459310  26.3229310  33.5439310  10.3569310  30.1209310
  33.8029310  11.0499310  29.5129310  32.6719310  10.6159310  30.4199310
  33.4659310  10.4789310  30.0809310  47.2319310   7.9469310  27.1019310
  48.0849310   7.6059310  26.8319310  47.2539310   7.9179310  28.0579310
  47.3439310   7.8989310  27.1889310  40.1619310   4.8579310  35.0069310
  39.4079310   4.5279310  34.5179310  39.9609310   4.6599310  35.9209310
  40.0399310   4.7899310  35.0609310  43.7119310   4.1809310  37.0759310
  42.9279310   4.1419310  37.6239310  44.3489310   3.6299310  37.5299310
  43.6929310   4.1059310  37.2039310  45.3779310   8.6179310  22.3169310
  45.7739310   8.9589310  23.1189310  45.8689310   9.0369310  21.6099310
  45.4909310   8.7149310  22.3289310  45.1069310   2.7039310  34.2789310
  45.7999310   2.8979310  34.9109310  44.4709310   3.4099310  34.3969310
  45.1139310   2.8189310  34.3749310  45.5719310  14.9739310  31.7539310
  45.0989310  15.8069310  31.7469310  45.0409310  14.3929310  31.2099310
  45.4429310  15.0059310  31.6839310  35.0829310  13.8309310  13.9979310
  34.1289310  13.7629310  13.9659310  35.2719310  14.1379310  14.8839310
  34.9849310  13.8619310  14.1069310  39.8479310  11.2749310   7.1609310
  39.6739310  11.4359310   8.0889310  39.0829310  10.7889310   6.8549310
  39.7279310  11.2329310   7.2409310  36.4189310   6.1719310   2.4919310
  36.2649310   6.6289310   3.3189310  37.1309310   5.5619310   2.6839310
  36.4899310   6.1519310   2.6219310  33.3059310  12.4279310   7.4549310
  33.3439310  13.3209310   7.1109310  32.5069310  12.4069310   7.9809310
  33.2089310  12.5399310   7.4779310  38.0169310  14.2179310   4.1439310
  37.2179310  13.6909310   4.1539310  38.3609310  14.1149310   3.2569310
  37.9589310  14.1369310   4.0319310  41.9249310   9.2029310   6.6109310
  41.4989310   8.5959310   6.0069310  41.2619310   9.8699310   6.7889310
  41.7859310   9.2109310   6.5569310  48.7959310   4.1259310   7.7049310
  48.0169310   4.2359310   8.2499310  49.1399310   5.0119310   7.5959310
  48.7399310   4.2529310   7.7609310  40.1269310   7.4419310  15.1369310
  39.9989310   6.5769310  15.5259310  40.5699310   7.2669310  14.3059310
  40.1669310   7.3089310  15.0799310  48.7389310   8.0309310   3.8859310
  48.3729310   8.6719310   4.4959310  47.9739310   7.6089310   3.4939310
  48.5939310   8.0589310   3.9139310  32.1239310   8.1089310  16.2869310
  31.2029310   7.8889310  16.1469310  32.2039310   8.2159310  17.2339310
  32.0159310   8.0939310  16.3899310  43.7139310  11.7979310   7.4919310
  43.8899310  12.6479310   7.0889310  42.9549310  11.4609310   7.0179310
  43.6399310  11.8639310   7.3799310  43.5039310  15.1229310   8.7439310
  44.0899310  15.8599310   8.5689310  42.7219310  15.3089310   8.2249310
  43.4789310  15.2409310   8.6549310  35.8259310   2.3779310   7.2639310
  35.4189310   2.3769310   6.3969310  35.3399310   3.0409310   7.7549310
  35.7119310   2.4629310   7.2159310  42.2929310   3.2629310  16.2809310
  42.8789310   3.5759310  16.9699310  41.5669310   3.8879310  16.2809310
  42.2749310   3.3829310  16.3689310  39.9129310   3.7639310   5.8129310
  39.0879310   3.7459310   5.3279310  39.6619310   3.5779310   6.7179310
  39.7749310   3.7379310   5.8669310  37.0269310  13.4289310  10.4299310
  36.7659310  13.0539310  11.2709310  37.7579310  12.8839310  10.1409310
  37.0869310  13.3109310  10.4999310  35.2649310  11.6219310   9.1449310
  34.5409310  11.9249310   8.5969310  35.8589310  12.3719310   9.1929310
  35.2489310  11.7569310   9.0809310  31.8139310   1.7759310  19.3349310
  31.6159310   1.8569310  18.4029310  31.0199310   2.0789310  19.7759310
  31.6869310   1.8249310  19.2719310  39.1649310  13.8479310   1.7759310
  39.6239310  13.0259310   1.9479310  39.8629310  14.4879310   1.6369310
  39.3129310  13.8249310   1.7799310  37.8879310   4.3389310  10.7579310
  38.7689310   4.6309310  10.9899310  37.9739310   4.0049310   9.8649310
  38.0119310   4.3339310  10.6729310  31.7819310  10.8019310  18.0919310
  31.0199310  11.3699310  17.9749310  31.9869310  10.4919310  17.2099310
  31.7099310  10.8349310  17.9639310  33.8529310  12.0969310  19.4289310
  34.3359310  12.6579310  18.8219310  33.4099310  11.4609310  18.8679310
  33.8579310  12.0879310  19.2799310  37.4789310  13.8329310  18.2269310
  38.0529310  13.7459310  18.9879310  37.4369310  14.7749310  18.0649310
  37.5469310  13.9419310  18.3029310  47.3139310   8.1659310  11.0639310
  47.7539310   8.6729310  11.7469310  46.6419310   7.6689310  11.5299310
  47.2849310   8.1669310  11.2109310  48.5289310   9.9339310  13.2919310
  47.8149310  10.5389310  13.0929310  49.2449310  10.4969310  13.5889310
  48.5299310  10.0829310  13.3049310  37.8339310   7.6869310  18.1279310
  37.6769310   6.7429310  18.0919310  37.7449310   7.9789310  17.2209310
  37.8019310   7.6029310  18.0069310  42.0409310  10.9949310   2.2299310
  42.3449310  10.1019310   2.3859310  42.5679310  11.5349310   2.8189310
  42.1469310  10.9499310   2.3249310  47.3059310   2.3309310  10.1329310
  48.2179310   2.3419310  10.4259310  47.3059310   1.7459310   9.3749310
  47.4229310   2.2569310  10.0739310  45.1509310   6.6679310  11.9839310
  44.2759310   6.4109310  11.6939310  45.5029310   5.8849310  12.4079310
  45.0839310   6.5349310  12.0009310  34.8599310  13.5839310  17.1419310
  34.6079310  14.4879310  17.3329310  35.7649310  13.5189310  17.4449310
  34.9439310  13.6919310  17.2049310  39.4959310   3.1679310   8.4469310
  39.5819310   2.3839310   8.9899310  39.9359310   3.8549310   8.9469310
  39.5629310   3.1559310   8.5799310  48.1739310  11.9079310   3.7829310
  48.2949310  12.7829310   3.4149310  48.3829310  11.3139310   3.0619310
  48.2159310  11.9439310   3.6429310  32.5709310  15.3899310   4.9659310
  31.7899310  15.2589310   4.4279310  32.5409310  16.3149310   5.2099310
  32.4669310  15.4919310   4.9279310  42.6219310  11.1919310  16.9169310
  43.2039310  11.0279310  17.6579310  42.0289310  11.8779310  17.2249310
  42.6199310  11.2589310  17.0509310  38.9239310  11.6559310   9.6559310
  38.4439310  10.8479310   9.8329310  39.6539310  11.6419310  10.2749310
  38.9559310  11.5509310   9.7579310  52.3359310   4.5729310   8.0399310
  52.3499310   4.2599310   8.9449310  52.2869310   5.5259310   8.1169310
  52.3319310   4.6549310   8.1659310  41.7289310   2.5089310   1.9229310
  41.1029310   1.7849310   1.9469310  41.9469310   2.6679310   2.8409310
  41.6769310   2.4369310   2.0429310  38.4669310   4.1569310  14.0429310
  37.6219310   3.8369310  14.3599310  38.9399310   3.3659310  13.7839310
  38.4189310   4.0149310  14.0509310  35.3939310   9.3429310  18.3769310
  36.2049310   8.8549310  18.2349310  35.1249310   9.6199310  17.5009310
  35.4629310   9.3159310  18.2459310  34.3019310  13.9149310   3.4999310
  33.7199310  14.4129310   4.0729310  34.5309310  14.5259310   2.7999310
  34.2569310  14.0569310   3.4839310  47.9009310   5.4739310   1.9239310
  47.4439310   5.2329310   2.7299310  48.8269310   5.3339310   2.1229310
  47.9609310   5.4249310   2.0529310  37.6559310   8.3829310  15.4049310
  38.5359310   8.0099310  15.3529310  37.1179310   7.8019310  14.8679310
  37.6999310   8.2609310  15.3299310  46.6449310  12.0939310  13.7619310
  46.2939310  11.9909310  14.6469310  46.7929310  13.0359310  13.6719310
  46.6189310  12.2009310  13.8639310  48.7819310  13.8609310  15.6409310
  48.9799310  13.4659310  16.4909310  48.1109310  14.5159310  15.8319310
  48.7209310  13.8939310  15.7739310  44.0999310   6.6399310  15.0539310
  43.5429310   6.2459310  14.3819310  43.5239310   7.2499310  15.5139310
  43.9549310   6.6679310  15.0269310  48.0139310   5.9009310  18.2479310
  47.1909310   6.2409310  17.8989310  47.8699310   5.8449310  19.1929310
  47.8909310   5.9369310  18.3239310  41.9269310   2.6269310   4.5869310
  41.1039310   2.9099310   4.9829310  42.6049310   3.0129310   5.1419310
  41.9089310   2.7119310   4.7089310  34.9389310   6.2179310  12.6799310
  34.5619310   6.0909310  13.5499310  34.3759310   5.7069310  12.0979310
  34.8189310   6.1369310  12.7169310  43.9459310   7.7279310   8.1349310
  44.4909310   8.2289310   8.7419310  43.2519310   8.3349310   7.8779310
  43.9269310   7.8689310   8.1799310  31.9289310   9.2939310   8.9559310
  32.3229310   9.2239310   8.0859310  32.5409310   8.8389310   9.5329310
  32.0579310   9.2269310   8.9179310  46.6499310   4.9739310   4.3279310
  46.6069310   5.5929310   5.0579310  46.2839310   4.1629310   4.6799310
  46.5979310   4.9499310   4.4669310  41.3999310   5.8379310   4.8069310
  40.7279310   5.1569310   4.8369310  41.4789310   6.0549310   3.8779310
  41.3239310   5.7789310   4.6919310  42.5859310  14.8169310  13.9249310
  42.0369310  14.7479310  13.1449310  42.9499310  13.9399310  14.0409310
  42.5629310  14.6959310  13.8399310  37.0199310   4.8119310  17.8759310
  36.9049310   4.5279310  16.9689310  36.1289310   4.9149310  18.2089310
  36.8909310   4.7889310  17.8019310  36.0649310   3.1389310  12.7219310
  35.4749310   2.3999310  12.5699310  36.6769310   3.1109310  11.9869310
  36.0679310   3.0409310  12.6079310  37.4499310   9.3309310  10.7539310
  37.4099310   8.3759310  10.7169310  36.9949310   9.5589310  11.5639310
  37.3869310   9.2379310  10.8529310  45.4149310   5.9839310  17.4359310
  44.7239310   5.3439310  17.6039310  45.2069310   6.3399310  16.5729310
  45.2999310   5.9469310  17.3469310  31.0329310   5.0859310   4.5729310
  31.6979310   5.6859310   4.9109310  30.2009310   5.5199310   4.7619310
  31.0119310   5.2179310   4.6409310  33.3659310   9.5309310   6.7749310
  34.0449310   9.2509310   7.3889310  33.4639310  10.4809310   6.7259310
  33.4649310   9.6169310   6.8479310  41.2929310  11.9419310  11.1639310
  41.2289310  11.4219310  11.9659310  41.8379310  12.6909310  11.4069310
  41.3539310  11.9709310  11.2979310  46.7919310  10.8379310   7.7829310
  45.8769310  10.8479310   7.4999310  46.9139310   9.9699310   8.1679310
  46.6899310  10.7279310   7.7959310  36.4139310   7.1549310   4.8669310
  37.2369310   7.6409310   4.8289310  36.4649310   6.6599310   5.6839310
  36.5259310   7.1539310   4.9659310  33.1049310  15.0299310   8.9429310
  32.5629310  15.4529310   9.6099310  34.0039310  15.2269310   9.2049310
  33.1499310  15.1099310   9.0619310  38.7089310   8.7919310   4.8689310
  38.1859310   9.4949310   5.2549310  38.7209310   8.9879310   3.9329310
  38.6439310   8.9069310   4.7989310  34.6459310   9.0949310  15.8629310
  34.6079310   9.4119310  14.9609310  33.7739310   8.7359310  16.0279310
  34.5289310   9.0889310  15.7689310  38.5539310  10.8349310  14.4379310
  37.7709310  11.2409310  14.0689310  38.2659310   9.9639310  14.7109310
  38.4169310  10.7749310  14.4259310  32.2919310  12.8469310  11.1809310
  32.9469310  13.2079310  10.5839310  31.6139310  12.4919310  10.6059310
  32.2889310  12.8479310  11.0309310  37.5799310   6.7919310  12.9169310
  37.9049310   5.9889310  13.3239310  36.7109310   6.5599310  12.5909310
  37.5099310   6.6599310  12.9269310  33.1959310   7.7259310  18.8859310
  33.9989310   8.2359310  18.7759310  32.7459310   8.1439310  19.6199310
  33.2409310   7.8449310  18.9659310  43.6919310   4.8739310   8.1459310
  44.1899310   4.6669310   7.3549310  43.8759310   5.7989310   8.3099310
  43.7789310   4.9659310   8.0659310  32.2809310   8.6569310   2.3449310
  33.0479310   8.3339310   2.8199310  31.5389310   8.4179310   2.8999310
  32.2839310   8.5849310   2.4769310  48.3799310  15.6459310  10.2139310
  48.2329310  14.7029310  10.2949310  49.0339310  15.8439310  10.8849310
  48.4449310  15.5499310  10.3099310  49.7129310  11.9239310   8.9999310
  48.8689310  12.3369310   9.1839310  49.5809310  11.0019310   9.2179310
  49.5879310  11.8589310   9.0509310  31.6189310   2.4129310  11.0409310
  32.4169310   2.0629310  10.6459310  31.5989310   2.0329310  11.9189310
  31.7179310   2.3189310  11.1029310  41.0129310   5.4699310   8.7689310
  40.6059310   6.2299310   8.3529310  41.8749310   5.4049310   8.3589310
  41.0709310   5.5589310   8.6629310  45.5499310   6.7089310   6.2509310
  46.2239310   7.1209310   6.7909310  44.7399310   7.1549310   6.4969310
  45.5329310   6.8189310   6.3509310  33.7039310   7.1999310   9.7539310
  34.6609310   7.1839310   9.7349310  33.4589310   6.3859310  10.1939310
  33.7949310   7.0939310   9.8079310  49.1719310   6.1379310  11.2369310
  48.7829310   5.6639310  11.9729310  48.6369310   6.9269310  11.1509310
  49.0539310   6.1779310  11.3199310  42.5459310   2.6859310  10.1029310
  43.1719310   3.1359310   9.5359310  42.4039310   1.8389310   9.6789310
  42.6079310   2.6349310   9.9759310  41.0809310  10.5629310  13.6019310
  41.4739310  11.3839310  13.8979310  40.1679310  10.6179310  13.8839310
  41.0149310  10.6749310  13.6759310  35.1049310   2.7239310   4.5759310
  35.0149310   2.4529310   3.6629310  34.2069310   2.8809310   4.8689310
  34.9779310   2.7099310   4.4969310  46.3049310   3.8469310  12.7509310
  46.0399310   3.1949310  13.4009310  46.5239310   3.3339310  11.9729310
  46.2989310   3.6979310  12.7349310  37.0509310   5.6399310   6.9759310
  37.2389310   4.8879310   6.4139310  37.9069310   6.0309310   7.1459310
  37.1839310   5.5939310   6.9259310  36.5519310   6.6369310   9.5279310
  36.8089310   6.2189310   8.7059310  36.6359310   5.9449310  10.1839310
  36.5959310   6.4949310   9.5069310  43.8639310  11.0919310   9.9869310
  43.9619310  11.3389310   9.0669310  43.0099310  11.4419310  10.2389310
  43.7669310  11.1679310   9.9019310  41.2539310  15.5059310   7.3259310
  41.0689310  14.6789310   6.8799310  40.9419310  16.1789310   6.7209310
  41.1899310  15.4859310   7.1909310  44.9519310  13.5179310  10.5259310
  44.4079310  14.1179310  10.0149310  44.5609310  12.6569310  10.3799310
  44.8329310  13.4849310  10.4419310  48.7269310   4.9269310  14.1489310
  47.8309310   4.6019310  14.0619310  48.6269310   5.8219310  14.4739310
  48.5989310   4.9999310  14.1799310  39.0439310  15.8859310   9.4989310
  39.0099310  15.1989310  10.1639310  39.5199310  15.4909310   8.7689310
  39.0999310  15.7479310   9.4909310  40.9229310   6.6139310   2.1869310
  41.6529310   7.2339310   2.1759310  40.1409310   7.1649310   2.1559310
  40.9159310   6.7639310   2.1809310  40.5549310   3.9949310  11.3029310
  40.1059310   3.2409310  11.6849310  41.2769310   3.6149310  10.8029310
  40.5899310   3.8499310  11.2879310  42.0899310   8.1189310  13.0149310
  41.8139310   8.9429310  13.4169310  43.0409310   8.1059310  13.1239310
  42.1769310   8.2229310  13.0799310  41.4459310  15.3419310  11.2639310
  42.2359310  15.8799310  11.2099310  40.8459310  15.7339310  10.6299310
  41.4699310  15.4609310  11.1759310  33.4759310   5.9669310  15.1519310
  32.7969310   6.6059310  15.3719310  33.0669310   5.1179310  15.3149310
  33.3359310   5.9399310  15.2009310  44.4359310  13.9719310   6.1159310
  44.0679310  14.5529310   6.7809310  45.3269310  14.2949310   5.9819310
  44.5029310  14.0879310   6.1839310  42.5409310   6.4089310  11.1009310
  42.2729310   7.0519310  11.7579310  41.7419310   6.2269310  10.6049310
  42.4039310   6.4679310  11.1209310  31.0829310   4.0469310  17.7209310
  30.4829310   4.7799310  17.8619310  31.6299310   4.0299310  18.5069310
  31.0759310   4.1389310  17.8399310  32.4389310   2.9479310   5.7639310
  32.8389310   3.5329310   6.4079310  31.9749310   3.5329310   5.1649310
  32.4309310   3.0979310   5.7699310  42.5179310   4.7429310  13.6629310
  42.3549310   5.0519310  12.7719310  41.6569310   4.4789310  13.9859310
  42.3869310   4.7489310  13.5909310  42.4499310   8.4059310  16.1989310
  41.6319310   8.2499310  15.7279310  42.4979310   9.3579310  16.2879310
  42.3519310   8.5079310  16.1499310  46.7999310   3.1019310  17.4299310
  47.5129310   2.4699310  17.5249310  47.2399310   3.9389310  17.2839310
  46.9469310   3.1279310  17.4229310  32.8289310   4.8839310  10.9519310
  32.0499310   5.3899310  11.1829310  32.5669310   3.9709310  11.0749310
  32.6959310   4.8319310  10.9969310  48.2729310  14.3789310  12.9989310
  48.5549310  14.2829310  13.9089310  47.4919310  14.9299310  13.0479310
  48.2089310  14.4369310  13.1219310  35.9249310   9.0409310   8.0579310
  35.8379310   9.8209310   8.6069310  35.9969310   8.3169310   8.6809310
  35.9229310   9.0479310   8.2079310  36.0269310   4.1819310  15.2419310
  35.9359310   4.0619310  14.2969310  35.3029310   4.7599310  15.4799310
  35.9229310   4.2409310  15.1509310  48.1939310  13.1569310   6.4339310
  48.2639310  12.5279310   7.1509310  48.2599310  12.6249310   5.6409310
  48.2109310  13.0089310   6.4239310  37.6519310   3.7439310   4.5799310
  38.0249310   3.6789310   3.7009310  36.7469310   3.4479310   4.4789310
  37.5839310   3.6969310   4.4549310  37.3509310  10.9009310   3.0139310
  36.6189310  10.4119310   2.6379310  38.0109310  10.9139310   2.3219310
  37.3409310  10.8399310   2.8779310  32.2969310  14.2459310  13.5849310
  32.0039310  13.9729310  12.7149310  31.9889310  15.1479310  13.6689310
  32.2199310  14.3259310  13.4839310  36.2119310  11.6099310  12.9829310
  35.6419310  12.2969310  13.3299310  35.7599310  10.7939310  13.1969310
  36.0809310  11.5939310  13.0549310  42.8039310  13.1909310   4.0739310
  42.1189310  13.1189310   4.7389310  43.6019310  13.3689310   4.5709310
  42.8179310  13.2039310   4.2229310  45.9669310   2.3999310   5.1739310
  45.7459310   2.1499310   6.0719310  46.7829310   1.9339310   4.9909310
  46.0429310   2.3079310   5.2659310  37.1919310  10.4839310   6.1769310
  36.5559310  10.0289310   6.7279310  36.7039310  11.2179310   5.8039310
  37.0489310  10.5199310   6.1999310  43.0699310  12.1549310  14.3819310
  42.8669310  11.8449310  15.2639310  43.5839310  11.4469310  13.9919310
  43.1099310  12.0239310  14.4449310  48.6579310   2.4239310   3.0099310
  47.8349310   1.9369310   2.9619310  48.4059310   3.2879310   3.3379310
  48.5209310   2.4719310   3.0459310  45.7149310   9.7569310  17.0289310
  45.0749310   9.2239310  17.5009310  45.6769310   9.4339310  16.1279310
  45.6279310   9.6469310  16.9739310  39.4819310  12.1249310  17.1639310
  39.0949310  11.7599310  16.3679310  38.8339310  12.7539310  17.4789310
  39.3489310  12.1579310  17.1029310  31.8419310  11.4789310  14.5329310
  31.4599310  12.3219310  14.7769310  32.6659310  11.7049310  14.1019310
  31.8979310  11.6159310  14.5089310  48.3819310   7.5939310  14.8459310
  47.4909310   7.8099310  15.1239310  48.6589310   8.3469310  14.3239310
  48.3029310   7.7179310  14.8149310  47.4499310   9.6159310   5.2779310
  47.4719310   9.7319310   6.2279310  47.6229310  10.4889310   4.9269310
  47.4749310   9.7429310   5.3549310  46.8249310  15.5559310   5.5849310
  46.5609310  15.5209310   4.6659310  47.4469310  14.8349310   5.6839310
  46.8709310  15.4589310   5.4799310  43.9989310  15.5519310   3.0959310
  43.4829310  14.8669310   3.5219310  43.5159310  16.3589310   3.2699310
  43.8709310  15.5669310   3.1729310  32.4899310   3.4629310  15.4799310
  31.9239310   3.8239310  14.7979310  31.9939310   3.5789310  16.2899310
  32.3539310   3.5239310  15.4959310  43.7359310  17.0949310  11.3969310
  44.5109310  16.9389310  10.8579310  43.7049310  18.0459310  11.5029310
  43.8309310  17.1969310  11.3419310  40.3059310  13.5069310   5.6259310
  40.0679310  12.6939310   6.0699310  39.5009310  13.7849310   5.1889310
  40.1729310  13.4389310   5.6269310  45.4989310  12.9269310  16.9329310
  45.7689310  12.0229310  17.0929310  44.5469310  12.9139310  17.0339310
  45.4119310  12.8099310  16.9669310  45.8089310   8.6329310  14.6299310
  45.1989310   7.8969310  14.6859310  45.3769310   9.2569310  14.0469310
  45.6759310   8.6179310  14.5629310  34.9069310   9.2209310  13.0549310
  34.4459310   9.5649310  12.2899310  34.9879310   8.2829310  12.8829310
  34.8579310   9.1449310  12.9349310  33.1029310   6.8619310   5.2399310
  34.0589310   6.8939310   5.2669310  32.8319310   7.7789310   5.2779310
  33.1909310   6.9829310   5.2479310  37.9429310   2.3209310  18.1829310
  37.1779310   1.9239310  18.6009310  37.6889310   3.2319310  18.0349310
  37.8119310   2.3869310  18.2179310  43.7709310   4.4129310   5.5949310
  44.3909310   4.8569310   5.0159310  42.9609310   4.9169310   5.5099310
  43.7469310   4.5349310   5.5099310  36.0629310  12.5489310   4.8269310
  35.3629310  12.9469310   4.3099310  36.4949310  11.9459310   4.2209310
  36.0289310  12.5229310   4.6829310  44.6639310  10.4919310  12.6489310
  44.4909310  10.4149310  11.7109310  45.4469310  11.0389310  12.7039310
  44.7419310  10.5519310  12.5359310  39.4819310   6.8759310   6.9679310
  39.9959310   6.2759310   6.4279310  39.2079310   7.5659310   6.3639310
  39.5119310   6.8869310   6.8219310  46.5099310  15.4429310  16.2589310
  46.9189310  15.6149310  17.1069310  46.2409310  14.5259310  16.3039310
  46.5279310  15.3479310  16.3729310  49.1769310  14.7349310   3.2569310
  49.7639310  14.5579310   2.5219310  48.5859310  15.4149310   2.9329310
  49.1759310  14.7989310   3.1209310  49.0169310  13.0899310  18.2519310
  48.2449310  13.1209310  18.8159310  49.6339310  13.6999310  18.6579310
  48.9969310  13.1719310  18.3769310  43.9179310   8.2169310  18.3209310
  43.1069310   8.2549310  17.8139310  44.2819310   7.3539310  18.1259310
  43.8609310   8.1119310  18.2309310  30.8629310   6.8499310   7.4559310
  31.4599310   7.1059310   6.7519310  31.1659310   7.3449310   8.2179310
  30.9779310   6.9459310   7.4629310  33.5439310  10.3569310  11.2609310
  33.8029310  11.0499310  10.6529310  32.6719310  10.6159310  11.5599310
  33.4659310  10.4789310  11.2209310  47.2319310   7.9469310   8.2419310
  48.0849310   7.6059310   7.9719310  47.2539310   7.9179310   9.1979310
  47.3439310   7.8989310   8.3289310  40.1619310   4.8579310  16.1469310
  39.4079310   4.5279310  15.6579310  39.9609310   4.6599310  17.0609310
  40.0399310   4.7899310  16.2009310  43.7119310   4.1809310  18.2159310
  42.9279310   4.1419310  18.7639310  44.3489310   3.6299310  18.6699310
  43.6929310   4.1059310  18.3439310  45.3779310   8.6179310   3.4569310
  45.7739310   8.9589310   4.2589310  45.8689310   9.0369310   2.7499310
  45.4909310   8.7149310   3.4689310  45.1069310   2.7039310  15.4189310
  45.7999310   2.8979310  16.0509310  44.4709310   3.4099310  15.5369310
  45.1139310   2.8189310  15.5149310  45.5719310  14.9739310  12.8939310
  45.0989310  15.8069310  12.8869310  45.0409310  14.3929310  12.3499310
  45.4429310  15.0059310  12.8239310  18.8239310  56.2459310  70.3179310
  19.0519310  56.2179310  71.2469310  18.1949310  55.5339310  70.2049310
  18.7729310  56.1509310  70.4229310  16.7399310  54.5319310  69.8239310
  16.1799310  54.9799310  70.4579310  16.5939310  53.6009310  69.9909310
  16.6499310  54.4699310  69.9259310  17.5589310  62.7729310  59.0719310
  17.4049310  63.2299310  59.8989310  18.2709310  62.1629310  59.2639310
  17.6299310  62.7529310  59.2019310  20.9539310  57.9819310  69.6769310
  20.3509310  57.3409310  70.0519310  21.7429310  57.9129310  70.2149310
  20.9779310  57.8919310  69.7939310  23.3769310  57.8079310  70.9449310
  23.5549310  56.9259310  71.2709310  23.6959310  58.3879310  71.6369310
  23.4409310  57.7689310  71.0759310  23.0649310  65.8039310  63.1909310
  22.6389310  65.1969310  62.5869310  22.4019310  66.4709310  63.3689310
  22.9259310  65.8119310  63.1369310  28.8169310  56.4359310  62.4439310
  28.8849310  55.4889310  62.3199310  29.6859310  56.7009310  62.7449310
  28.9369310  56.3489310  62.4669310  29.9359310  60.7269310  64.2849310
  29.1569310  60.8369310  64.8299310  30.2799310  61.6129310  64.1759310
  29.8799310  60.8539310  64.3409310  21.0319310  56.8549310  58.4329310
  20.7659310  56.3919310  59.2279310  21.0479310  56.1779310  57.7569310
  20.9999310  56.7089310  58.4489310  21.2669310  64.0429310  71.7169310
  21.1389310  63.1779310  72.1059310  21.7099310  63.8679310  70.8859310
  21.3069310  63.9099310  71.6599310  24.1429310  64.9949310  58.7359310
  24.9129310  65.0159310  59.3029310  24.4619310  64.6279310  57.9119310
  24.2819310  64.9509310  58.7029310  29.8789310  64.6319310  60.4659310
  29.5129310  65.2729310  61.0759310  29.1139310  64.2099310  60.0739310
  29.7339310  64.6599310  60.4939310  12.3909310  58.3729310  70.2739310
  12.6679310  58.9419310  70.9919310  11.7889310  57.7499310  70.6809310
  12.3499310  58.3659310  70.4179310  27.8609310  66.2319310  57.4829310
  27.9029310  66.0979310  56.5359310  28.7469310  66.4989310  57.7259310
  27.9799310  66.2489310  57.3929310  13.2639310  64.7099310  72.8669310
  12.3429310  64.4899310  72.7269310  13.3439310  64.8169310  73.8139310
  13.1559310  64.6949310  72.9699310  16.9659310  58.9789310  63.8439310
  16.5589310  58.9779310  62.9769310  16.4799310  59.6419310  64.3349310
  16.8519310  59.0639310  63.7959310  15.0849310  55.3749310  71.8619310
  15.2919310  56.2729310  72.1189310  14.7289310  54.9739310  72.6549310
  15.0659310  55.4379310  71.9959310  16.3929310  56.1659310  62.5619310
  15.6349310  56.1529310  63.1469310  16.9249310  55.4219310  62.8429310
  16.3639310  56.0689310  62.6729310  23.4329310  59.8639310  72.8609310
  24.0189310  60.1769310  73.5499310  22.7069310  60.4889310  72.8609310
  23.4149310  59.9839310  72.9489310  21.0529310  60.3649310  62.3929310
  20.2279310  60.3469310  61.9079310  20.8019310  60.1789310  63.2979310
  20.9149310  60.3389310  62.4469310  15.8779310  61.9869310  57.0629310
  15.2749310  62.7239310  56.9669310  16.5069310  62.2769310  57.7239310
  15.8809310  62.1179310  57.1349310  19.0279310  60.9399310  67.3379310
  19.9089310  61.2319310  67.5699310  19.1139310  60.6059310  66.4449310
  19.1519310  60.9349310  67.2529310  23.3249310  56.7589310  65.5219310
  22.3729310  56.6959310  65.5929310  23.6529310  56.0309310  66.0499310
  23.2449310  56.6579310  65.5989310  28.4539310  64.7669310  67.6439310
  28.8939310  65.2739310  68.3269310  27.7819310  64.2699310  68.1099310
  28.4249310  64.7679310  67.7909310  29.6689310  66.5349310  69.8719310
  28.9549310  67.1399310  69.6729310  30.3849310  67.0979310  70.1689310
  29.6699310  66.6839310  69.8849310  25.8039310  58.0839310  59.3859310
  25.9079310  58.4279310  60.2729310  25.6739310  58.8599310  58.8409310
  25.8009310  58.2269310  59.4299310  28.4459310  58.9319310  66.7129310
  29.3579310  58.9429310  67.0059310  28.4459310  58.3469310  65.9549310
  28.5629310  58.8579310  66.6539310  26.2909310  63.2689310  68.5639310
  25.4159310  63.0119310  68.2739310  26.6429310  62.4859310  68.9879310
  26.2239310  63.1359310  68.5809310  18.0329310  55.2579310  57.3729310
  18.3749310  55.2669310  58.2669310  17.5479310  56.0799310  57.2949310
  18.0149310  55.3649310  57.4769310  13.2019310  55.1739310  67.2769310
  14.0359310  55.6279310  67.1529310  12.6139310  55.5729310  66.6369310
  13.2339310  55.2829310  67.1799310  20.6359310  59.7689310  65.0269310
  20.7219310  58.9849310  65.5699310  21.0759310  60.4559310  65.5269310
  20.7029310  59.7569310  65.1599310  29.2979310  57.3869310  74.3669310
  28.3989310  57.0589310  74.3619310  29.6229310  57.2099310  73.4849310
  29.2239310  57.3219310  74.2539310  33.4759310  61.1739310  64.6199310
  33.4899310  60.8609310  65.5249310  33.4269310  62.1269310  64.6969310
  33.4719310  61.2559310  64.7459310  22.8689310  59.1099310  58.5029310
  22.2429310  58.3859310  58.5269310  23.0869310  59.2689310  59.4209310
  22.8169310  59.0379310  58.6229310  19.6069310  60.7579310  70.6229310
  18.7619310  60.4379310  70.9399310  20.0799310  59.9669310  70.3639310
  19.5589310  60.6159310  70.6309310  29.3349310  56.6249310  71.7979310
  28.4689310  56.4609310  71.4269310  29.9169310  56.0329310  71.3199310
  29.2989310  56.5279310  71.6889310  29.0409310  62.0749310  58.5039310
  28.5839310  61.8339310  59.3099310  29.9669310  61.9349310  58.7029310
  29.1009310  62.0259310  58.6329310  18.7959310  64.9839310  71.9849310
  19.6759310  64.6109310  71.9329310  18.2579310  64.4029310  71.4479310
  18.8399310  64.8619310  71.9099310  27.1659310  57.7919310  64.0919310
  27.8619310  57.4059310  63.5589310  26.5559310  57.0699310  64.2469310
  27.1769310  57.6499310  64.0429310  25.2399310  63.2409310  71.6339310
  24.6829310  62.8469310  70.9619310  24.6639310  63.8509310  72.0939310
  25.0949310  63.2689310  71.6069310  23.0669310  59.2279310  61.1669310
  22.2439310  59.5109310  61.5629310  23.7449310  59.6139310  61.7219310
  23.0489310  59.3129310  61.2889310  16.0789310  62.8189310  69.2599310
  15.7019310  62.6919310  70.1299310  15.5159310  62.3079310  68.6779310
  15.9589310  62.7379310  69.2969310  25.0859310  64.3289310  64.7149310
  25.6309310  64.8299310  65.3219310  24.3919310  64.9359310  64.4579310
  25.0669310  64.4699310  64.7599310  13.0689310  65.8949310  65.5359310
  13.4629310  65.8249310  64.6659310  13.6809310  65.4399310  66.1129310
  13.1979310  65.8279310  65.4979310  27.7899310  61.5749310  60.9079310
  27.7469310  62.1939310  61.6379310  27.4239310  60.7639310  61.2599310
  27.7379310  61.5509310  61.0469310  22.5399310  62.4389310  61.3869310
  21.8679310  61.7579310  61.4169310  22.6189310  62.6559310  60.4579310
  22.4639310  62.3799310  61.2719310  17.2049310  59.7399310  69.3019310
  16.6149310  59.0009310  69.1499310  17.8169310  59.7119310  68.5669310
  17.2079310  59.6419310  69.1879310  18.5899310  65.9319310  67.3339310
  18.5499310  64.9769310  67.2969310  18.1349310  66.1599310  68.1439310
  18.5269310  65.8389310  67.4329310  26.5549310  62.5849310  74.0159310
  25.8639310  61.9449310  74.1839310  26.3469310  62.9409310  73.1529310
  26.4399310  62.5479310  73.9269310  12.1729310  61.6869310  61.1529310
  12.8379310  62.2869310  61.4909310  11.3409310  62.1209310  61.3419310
  12.1519310  61.8189310  61.2209310  14.5059310  66.1319310  63.3549310
  15.1849310  65.8519310  63.9689310  14.6039310  67.0819310  63.3059310
  14.6049310  66.2179310  63.4279310  19.9199310  64.8679310  58.4419310
  19.5369310  64.5589310  57.6209310  20.1589310  65.7789310  58.2669310
  19.9019310  64.9449310  58.3149310  14.1759310  56.3229310  64.1199310
  13.9379310  55.5039310  63.6859310  13.4149310  56.8909310  63.9929310
  14.0479310  56.2909310  64.0479310  18.7469310  55.1379310  60.1239310
  18.9919310  54.2629310  60.4249310  18.5319310  55.6149310  60.9249310
  18.7509310  55.0869310  60.2649310  23.9789310  56.8869310  62.6619310
  23.6849310  57.6019310  62.0979310  23.7079310  57.1479310  63.5419310
  23.9069310  57.0119310  62.7019310  27.9319310  67.4389310  64.3629310
  27.0169310  67.4489310  64.0799310  28.0539310  66.5709310  64.7479310
  27.8299310  67.3289310  64.3759310  15.5849310  59.4029310  58.1579310
  14.6599310  59.1599310  58.1959310  15.5809310  60.3229310  57.8929310
  15.4669310  59.4899310  58.1289310  17.5539310  63.7559310  61.4469310
  18.3769310  64.2419310  61.4089310  17.6049310  63.2609310  62.2639310
  17.6659310  63.7549310  61.5459310  19.8489310  65.3929310  61.4489310
  19.3259310  66.0959310  61.8349310  19.8609310  65.5889310  60.5129310
  19.7839310  65.5079310  61.3789310  26.8919310  60.2599310  57.6129310
  27.3699310  59.9069310  56.8639310  27.3939310  61.0319310  57.8759310
  27.0169310  60.3139310  57.5509310  15.7859310  65.6959310  72.4429310
  15.7479310  66.0129310  71.5409310  14.9139310  65.3369310  72.6079310
  15.6689310  65.6899310  72.3489310  28.7439310  51.3399310  67.0119310
  28.8899310  51.7449310  67.8669310  27.7989310  51.4079310  66.8729310
  28.6419310  51.3999310  67.1039310  18.7199310  63.3929310  69.4969310
  19.0449310  62.5899310  69.9039310  17.8509310  63.1609310  69.1709310
  18.6499310  63.2609310  69.5069310  24.8319310  61.4749310  64.7259310
  25.3299310  61.2679310  63.9349310  25.0159310  62.3999310  64.8899310
  24.9189310  61.5669310  64.6459310  19.4569310  60.2209310  58.4669310
  18.9759310  59.4039310  58.3359310  19.8909310  60.3799310  57.6289310
  19.4509310  60.1369310  58.3429310  13.4209310  65.2579310  58.9249310
  14.1879310  64.9349310  59.3999310  12.6789310  65.0189310  59.4799310
  13.4239310  65.1859310  59.0569310  12.7589310  59.0139310  67.6209310
  13.5569310  58.6639310  67.2259310  12.7389310  58.6339310  68.4989310
  12.8579310  58.9199310  67.6829310  22.1529310  62.0709310  65.3489310
  21.7459310  62.8309310  64.9329310  23.0149310  62.0059310  64.9389310
  22.2109310  62.1599310  65.2429310  26.6899310  63.3099310  62.8309310
  27.3639310  63.7219310  63.3709310  25.8799310  63.7559310  63.0769310
  26.6729310  63.4199310  62.9309310  14.8439310  63.8009310  66.3339310
  15.8009310  63.7849310  66.3149310  14.5989310  62.9869310  66.7739310
  14.9349310  63.6949310  66.3879310  25.1469310  57.8109310  68.8729310
  24.6929310  58.2529310  68.1549310  24.6049310  57.9859310  69.6419310
  25.0199310  57.8899310  68.8789310  30.3119310  62.7389310  67.8169310
  29.9229310  62.2649310  68.5529310  29.7769310  63.5279310  67.7309310
  30.1939310  62.7789310  67.8999310  23.6859310  59.2869310  66.6829310
  24.3119310  59.7369310  66.1159310  23.5439310  58.4399310  66.2589310
  23.7479310  59.2359310  66.5559310  23.7099310  56.0319310  59.4389310
  22.9509310  56.2799310  58.9109310  24.2649310  56.8119310  59.4399310
  23.6839310  56.1639310  59.3719310  16.2449310  59.3249310  61.1559310
  16.1549310  59.0539310  60.2429310  15.3469310  59.4819310  61.4489310
  16.1179310  59.3109310  61.0769310  25.8319310  55.2159310  63.9519310
  25.1699310  55.6219310  63.3919310  26.5269310  54.9529310  63.3489310
  25.8359310  55.2349310  63.8029310  27.4449310  60.4479310  69.3309310
  27.1799310  59.7959310  69.9809310  27.6639310  59.9349310  68.5529310
  27.4389310  60.2989310  69.3149310  18.1909310  62.2409310  63.5559310
  18.3789310  61.4889310  62.9939310  19.0469310  62.6319310  63.7259310
  18.3239310  62.1949310  63.5059310  19.8469310  57.1009310  72.7959310
  20.7689310  57.1769310  73.0399310  19.3949310  57.7179310  73.3709310
  19.9069310  57.1889310  72.8999310  16.8379310  54.1109310  65.7149310
  17.0089310  55.0319310  65.9139310  17.4039310  53.6269310  66.3159310
  16.9319310  54.1669310  65.8169310  20.6409310  67.4479310  57.8389310
  21.4849310  67.4099310  58.2899310  20.8639310  67.6529310  56.9309310
  20.7779310  67.4689310  57.7809310  17.6919310  63.2379310  66.1079310
  17.9489310  62.8199310  65.2859310  17.7759310  62.5459310  66.7639310
  17.7359310  63.0959310  66.0869310  29.8669310  61.5279310  70.7289310
  28.9709310  61.2029310  70.6419310  29.7669310  62.4229310  71.0539310
  29.7389310  61.6009310  70.7599310  22.0629310  63.2149310  58.7669310
  22.7929310  63.8349310  58.7559310  21.2809310  63.7659310  58.7359310
  22.0559310  63.3649310  58.7609310  21.6949310  60.5959310  67.8829310
  21.2459310  59.8419310  68.2649310  22.4169310  60.2159310  67.3829310
  21.7299310  60.4509310  67.8679310  23.2299310  64.7199310  69.5949310
  22.9539310  65.5439310  69.9969310  24.1809310  64.7069310  69.7039310
  23.3169310  64.8239310  69.6599310  18.7179310  57.3329310  61.8659310
  18.5699310  58.2759310  61.7879310  17.9259310  57.0009310  62.2899310
  18.5979310  57.4109310  61.9099310  17.9739310  57.8219310  58.4609310
  17.0569310  57.6069310  58.6269310  18.4489310  57.4339310  59.1959310
  17.9169310  57.7449310  58.5759310  14.6159310  62.5679310  71.7319310
  13.9369310  63.2069310  71.9519310  14.2069310  61.7189310  71.8949310
  14.4759310  62.5409310  71.7809310  12.7639310  55.4769310  70.3139310
  13.6259310  55.4379310  70.7279310  12.9499310  55.6269310  69.3869310
  12.8979310  55.4909310  70.2479310  23.6809310  63.0099310  67.6809310
  23.4129310  63.6529310  68.3379310  22.8819310  62.8279310  67.1849310
  23.5439310  63.0689310  67.7009310  13.5789310  59.5489310  62.3439310
  13.9789310  60.1339310  62.9879310  13.1149310  60.1339310  61.7449310
  13.5709310  59.6989310  62.3499310  23.6579310  61.3439310  70.2429310
  23.4949310  61.6529310  69.3519310  22.7969310  61.0799310  70.5659310
  23.5269310  61.3499310  70.1709310  23.8799310  55.5649310  74.3809310
  23.8769310  55.2749310  73.4689310  23.2079310  56.2459310  74.4179310
  23.7929310  55.6149310  74.2689310  15.5389310  54.2279310  58.3889310
  15.5399310  54.9699310  58.9929310  16.0429310  54.5319310  57.6349310
  15.6039310  54.3619310  58.3699310  16.4549310  66.2639310  58.6729310
  16.5409310  66.2129310  57.7209310  15.9019310  67.0319310  58.8219310
  16.3949310  66.3559310  58.5699310  23.5899310  65.0069310  72.7789310
  22.7719310  64.8509310  72.3079310  23.6379310  65.9589310  72.8679310
  23.4919310  65.1089310  72.7299310  27.9399310  59.7029310  74.0099310
  28.6529310  59.0709310  74.1049310  28.3799310  60.5399310  73.8639310
  28.0869310  59.7289310  74.0029310  13.9689310  61.4849310  67.5319310
  13.1899310  61.9909310  67.7629310  13.7069310  60.5719310  67.6549310
  13.8359310  61.4329310  67.5769310  17.0649310  65.6419310  64.6379310
  16.9779310  66.4219310  65.1869310  17.1369310  64.9179310  65.2609310
  17.0629310  65.6489310  64.7879310  12.6959310  56.7259310  59.8429310
  12.6389310  56.4719310  58.9219310  12.1479310  57.5079310  59.9109310
  12.6189310  56.7939310  59.7339310  17.1669310  60.7829310  71.8219310
  17.0759310  60.6629310  70.8769310  16.4429310  61.3609310  72.0599310
  17.0629310  60.8419310  71.7309310  18.2489310  54.2989310  63.2739310
  17.8439310  53.9679310  64.0759310  18.3559310  53.5249310  62.7219310
  18.2109310  54.1579310  63.3059310  18.7919310  60.3449310  61.1599310
  19.1649310  60.2799310  60.2809310  17.8869310  60.0489310  61.0589310
  18.7239310  60.2979310  61.0349310  18.4909310  67.5019310  59.5939310
  17.7589310  67.0129310  59.2179310  19.1509310  67.5149310  58.9019310
  18.4809310  67.4409310  59.4579310  20.9369310  57.2419310  63.5449310
  20.0849310  57.1039310  63.1329310  20.9869310  58.1889310  63.6809310
  20.8349310  57.3459310  63.5099310  15.8089310  57.9099310  72.7359310
  16.5999310  57.9429310  72.1989310  15.4489310  58.7959310  72.6879310
  15.8639310  58.0269310  72.6609310  21.9819310  60.9129310  56.7839310
  21.9629310  61.5629310  57.4859310  22.3369310  60.1249310  57.1959310
  22.0249310  60.8959310  56.9259310  26.9649310  56.1629310  74.2049310
  27.0259310  55.8159310  73.3149310  26.0249310  56.2109310  74.3789310
  26.8519310  56.1249310  74.1129310  21.6549310  55.4159310  61.6359310
  21.4299310  56.2009310  62.1349310  22.5539310  55.5679310  61.3439310
  21.7419310  55.5359310  61.6629310  27.0819310  55.1359310  66.5059310
  27.9529310  54.7429310  66.5629310  26.9829310  55.3669310  65.5829310
  27.1809310  55.1149310  66.3949310  23.9899310  55.4029310  71.6399310
  23.7299310  54.6269310  71.1429310  24.9459310  55.4079310  71.5919310
  24.0789310  55.3039310  71.5699310  27.1069310  59.0009310  61.7539310
  26.8859310  58.7509310  62.6519310  27.9229310  58.5349310  61.5709310
  27.1829310  58.9089310  61.8459310  20.9099310  57.5509310  66.9209310
  20.0589310  57.1199310  66.8339310  21.0089310  57.6979310  67.8619310
  20.8129310  57.5149310  67.0299310  29.7979310  59.0249310  59.5899310
  28.9749310  58.5379310  59.5419310  29.5459310  59.8889310  59.9179310
  29.6609310  59.0729310  59.6259310  26.8549310  66.3579310  73.6089310
  26.2149310  65.8249310  74.0809310  26.8169310  66.0349310  72.7079310
  26.7679310  66.2479310  73.5539310  14.8849310  57.7059310  66.5349310
  14.7909310  57.2389310  65.7049310  15.7079310  57.3829310  66.8999310
  14.9779310  57.6049310  66.4759310  29.5219310  64.1949310  71.4259310
  28.6309310  64.4109310  71.7039310  29.7989310  64.9479310  70.9039310
  29.4429310  64.3189310  71.3949310  28.5899310  66.2169310  61.8579310
  28.6119310  66.3329310  62.8079310  28.7629310  67.0899310  61.5069310
  28.6149310  66.3439310  61.9349310  17.0479310  56.9639310  67.7909310
  17.4999310  56.3849310  68.4049310  17.6109310  56.9789310  67.0179310
  17.1779310  56.8919310  67.7709310  13.6299310  60.0639310  72.0599310
  13.0639310  60.4249310  71.3779310  13.1339310  60.1799310  72.8699310
  13.4939310  60.1249310  72.0759310  26.9489310  65.2339310  71.2099310
  26.3389310  64.4979310  71.2659310  26.5169310  65.8579310  70.6269310
  26.8159310  65.2189310  71.1429310  16.0469310  65.8219310  69.6349310
  15.5859310  66.1659310  68.8699310  16.1279310  64.8839310  69.4629310
  15.9979310  65.7459310  69.5149310  14.2429310  63.4629310  61.8199310
  15.1989310  63.4949310  61.8469310  13.9719310  64.3799310  61.8579310
  14.3309310  63.5839310  61.8279310  15.6019310  56.7529310  59.7909310
  15.9099310  56.8179310  60.6949310  14.6839310  56.4949310  59.8699310
  15.5239310  56.7279310  59.9169310  24.9109310  61.0139310  62.1749310
  25.5309310  61.4579310  61.5959310  24.1009310  61.5179310  62.0899310
  24.8869310  61.1359310  62.0899310  11.5309310  67.0659310  58.1359310
  12.1589310  66.5429310  58.6349310  12.0249310  67.3719310  57.3749310
  11.6749310  67.0379310  58.1029310  25.8039310  67.0929310  69.2289310
  25.6309310  67.0159310  68.2909310  26.5869310  67.6399310  69.2839310
  25.8819310  67.1529310  69.1159310  20.6219310  63.4769310  63.5479310
  21.1359310  62.8769310  63.0079310  20.3479310  64.1669310  62.9439310
  20.6519310  63.4879310  63.4019310  26.6639310  56.7059310  71.1069310
  26.3769310  57.5319310  71.4979310  26.4409310  56.7899310  70.1799310
  26.5979310  56.8229310  71.0389310  30.6789310  58.0419310  63.5929310
  31.2609310  58.5269310  63.0069310  30.1129310  58.7119310  63.9759310
  30.6809310  58.1899310  63.5669310  18.3979310  56.8609310  65.4589310
  18.2199310  57.4509310  64.7269310  18.8829310  56.1339310  65.0689310
  18.4369310  56.8439310  65.3159310  12.0029310  63.4509310  64.0359310
  12.5999310  63.7069310  63.3319310  12.3059310  63.9459310  64.7979310
  12.1179310  63.5469310  64.0429310  14.6839310  66.9579310  67.8409310
  14.9429310  67.6509310  67.2329310  13.8119310  67.2169310  68.1399310
  14.6059310  67.0799310  67.8009310  28.3719310  64.5479310  64.8219310
  29.2249310  64.2069310  64.5519310  28.3939310  64.5189310  65.7779310
  28.4839310  64.4999310  64.9089310  21.3019310  61.4589310  72.7269310
  20.5479310  61.1289310  72.2379310  21.1009310  61.2609310  73.6409310
  21.1799310  61.3909310  72.7809310  30.4479310  54.5739310  64.3299310
  29.8519310  54.2239310  64.9919310  31.1659310  53.9419310  64.2949310
  30.4639310  54.4489310  64.4099310  26.5179310  65.2189310  60.0369310
  26.9139310  65.5599310  60.8389310  27.0089310  65.6379310  59.3299310
  26.6309310  65.3159310  60.0489310  26.2469310  59.3049310  71.9989310
  26.9399310  59.4989310  72.6309310  25.6109310  60.0109310  72.1169310
  26.2539310  59.4199310  72.0949310  18.8239310  56.2459310  51.4579310
  19.0519310  56.2179310  52.3869310  18.1949310  55.5339310  51.3449310
  18.7729310  56.1509310  51.5629310  16.7399310  54.5319310  50.9639310
  16.1799310  54.9799310  51.5979310  16.5939310  53.6009310  51.1309310
  16.6499310  54.4699310  51.0659310  17.5589310  62.7729310  40.2119310
  17.4049310  63.2299310  41.0389310  18.2709310  62.1629310  40.4039310
  17.6299310  62.7529310  40.3419310  20.9539310  57.9819310  50.8169310
  20.3509310  57.3409310  51.1919310  21.7429310  57.9129310  51.3549310
  20.9779310  57.8919310  50.9339310  21.4919310  54.4189310  57.0949310
  22.3839310  54.1899310  56.8309310  20.9699310  54.2979310  56.3019310
  21.5399310  54.3749310  56.9599310  23.3769310  57.8079310  52.0849310
  23.5549310  56.9259310  52.4109310  23.6959310  58.3879310  52.7769310
  23.4409310  57.7689310  52.2159310  23.0649310  65.8039310  44.3309310
  22.6389310  65.1969310  43.7269310  22.4019310  66.4709310  44.5089310
  22.9259310  65.8119310  44.2769310  28.8169310  56.4359310  43.5839310
  28.8849310  55.4889310  43.4599310  29.6859310  56.7009310  43.8849310
  28.9369310  56.3489310  43.6069310  29.9359310  60.7269310  45.4249310
  29.1569310  60.8369310  45.9699310  30.2799310  61.6129310  45.3159310
  29.8799310  60.8539310  45.4809310  21.0319310  56.8549310  39.5729310
  20.7659310  56.3919310  40.3679310  21.0479310  56.1779310  38.8969310
  20.9999310  56.7089310  39.5889310  21.2669310  64.0429310  52.8569310
  21.1389310  63.1779310  53.2459310  21.7099310  63.8679310  52.0259310
  21.3069310  63.9099310  52.7999310  24.1429310  64.9949310  39.8759310
  24.9129310  65.0159310  40.4429310  24.4619310  64.6279310  39.0519310
  24.2819310  64.9509310  39.8429310  29.8789310  64.6319310  41.6059310
  29.5129310  65.2729310  42.2159310  29.1139310  64.2099310  41.2139310
  29.7339310  64.6599310  41.6339310  12.3909310  58.3729310  51.4139310
  12.6679310  58.9419310  52.1319310  11.7889310  57.7499310  51.8209310
  12.3499310  58.3659310  51.5579310  27.8609310  66.2319310  38.6229310
  27.9029310  66.0979310  37.6759310  28.7469310  66.4989310  38.8659310
  27.9799310  66.2489310  38.5329310  13.2639310  64.7099310  54.0069310
  12.3429310  64.4899310  53.8669310  13.3439310  64.8169310  54.9539310
  13.1559310  64.6949310  54.1099310  28.2039310  56.6619310  40.7109310
  28.3359310  56.5179310  41.6479310  27.3359310  57.0609310  40.6509310
  28.1099310  56.6939310  40.8239310  16.9659310  58.9789310  44.9839310
  16.5589310  58.9779310  44.1169310  16.4799310  59.6419310  45.4749310
  16.8519310  59.0639310  44.9359310  15.0849310  55.3749310  53.0019310
  15.2919310  56.2729310  53.2589310  14.7289310  54.9739310  53.7949310
  15.0659310  55.4379310  53.1359310  16.3929310  56.1659310  43.7019310
  15.6349310  56.1529310  44.2869310  16.9249310  55.4219310  43.9829310
  16.3639310  56.0689310  43.8129310  23.4329310  59.8639310  54.0009310
  24.0189310  60.1769310  54.6899310  22.7069310  60.4889310  54.0009310
  23.4149310  59.9839310  54.0889310  21.0529310  60.3649310  43.5329310
  20.2279310  60.3469310  43.0479310  20.8019310  60.1789310  44.4379310
  20.9149310  60.3389310  43.5869310  12.9539310  58.3769310  57.0549310
  12.7559310  58.4579310  56.1229310  12.1599310  58.6799310  57.4959310
  12.8269310  58.4259310  56.9919310  15.8779310  61.9869310  38.2029310
  15.2749310  62.7239310  38.1069310  16.5069310  62.2769310  38.8639310
  15.8809310  62.1179310  38.2749310  19.0279310  60.9399310  48.4779310
  19.9089310  61.2319310  48.7099310  19.1139310  60.6059310  47.5849310
  19.1519310  60.9349310  48.3929310  23.3249310  56.7589310  46.6619310
  22.3729310  56.6959310  46.7329310  23.6529310  56.0309310  47.1899310
  23.2449310  56.6579310  46.7389310  28.4539310  64.7669310  48.7839310
  28.8939310  65.2739310  49.4669310  27.7819310  64.2699310  49.2499310
  28.4249310  64.7679310  48.9309310  29.6689310  66.5349310  51.0119310
  28.9549310  67.1399310  50.8129310  30.3849310  67.0979310  51.3089310
  29.6699310  66.6839310  51.0249310  18.9739310  64.2879310  55.8479310
  18.8169310  63.3439310  55.8119310  18.8849310  64.5799310  54.9409310
  18.9419310  64.2039310  55.7269310  25.8039310  58.0839310  40.5259310
  25.9079310  58.4279310  41.4129310  25.6739310  58.8599310  39.9809310
  25.8009310  58.2269310  40.5699310  28.4459310  58.9319310  47.8529310
  29.3579310  58.9429310  48.1459310  28.4459310  58.3469310  47.0949310
  28.5629310  58.8579310  47.7939310  26.2909310  63.2689310  49.7039310
  25.4159310  63.0119310  49.4139310  26.6429310  62.4859310  50.1279310
  26.2239310  63.1359310  49.7209310  18.0329310  55.2579310  38.5129310
  18.3749310  55.2669310  39.4069310  17.5479310  56.0799310  38.4349310
  18.0149310  55.3649310  38.6169310  13.2019310  55.1739310  48.4169310
  14.0359310  55.6279310  48.2929310  12.6139310  55.5729310  47.7769310
  13.2339310  55.2829310  48.3199310  14.3009310  54.3069310  55.4289310
  13.4679310  53.8799310  55.6299310  14.2679310  55.1339310  55.9089310
  14.1899310  54.3579310  55.5159310  20.6359310  59.7689310  46.1669310
  20.7219310  58.9849310  46.7099310  21.0759310  60.4559310  46.6669310
  20.7029310  59.7569310  46.2999310  30.9069310  55.2459310  38.3819310
  30.7309310  56.0869310  37.9609310  30.0979310  54.7469310  38.2679310
  30.7809310  55.2899310  38.3139310  33.4759310  61.1739310  45.7599310
  33.4899310  60.8609310  46.6649310  33.4269310  62.1269310  45.8369310
  33.4719310  61.2559310  45.8859310  22.8689310  59.1099310  39.6429310
  22.2429310  58.3859310  39.6669310  23.0869310  59.2689310  40.5609310
  22.8169310  59.0379310  39.7629310  19.6069310  60.7579310  51.7629310
  18.7619310  60.4379310  52.0799310  20.0799310  59.9669310  51.5039310
  19.5589310  60.6159310  51.7709310  16.5339310  65.9439310  56.0969310
  17.3449310  65.4559310  55.9549310  16.2649310  66.2209310  55.2209310
  16.6029310  65.9169310  55.9659310  29.3349310  56.6249310  52.9379310
  28.4689310  56.4609310  52.5669310  29.9169310  56.0329310  52.4599310
  29.2989310  56.5279310  52.8289310  29.0409310  62.0749310  39.6439310
  28.5839310  61.8339310  40.4499310  29.9669310  61.9349310  39.8429310
  29.1009310  62.0259310  39.7729310  18.7959310  64.9839310  53.1249310
  19.6759310  64.6109310  53.0729310  18.2579310  64.4029310  52.5879310
  18.8399310  64.8619310  53.0499310  27.1659310  57.7919310  45.2319310
  27.8619310  57.4059310  44.6989310  26.5559310  57.0699310  45.3869310
  27.1769310  57.6499310  45.1829310  25.2399310  63.2409310  52.7739310
  24.6829310  62.8469310  52.1019310  24.6639310  63.8509310  53.2339310
  25.0949310  63.2689310  52.7469310  29.1539310  62.5019310  55.9679310
  28.3309310  62.8419310  55.6189310  29.0099310  62.4459310  56.9129310
  29.0309310  62.5379310  56.0439310  23.0669310  59.2279310  42.3069310
  22.2439310  59.5109310  42.7029310  23.7449310  59.6139310  42.8619310
  23.0489310  59.3129310  42.4289310  16.0789310  62.8189310  50.3999310
  15.7019310  62.6919310  51.2699310  15.5159310  62.3079310  49.8179310
  15.9589310  62.7379310  50.4369310  25.0859310  64.3289310  45.8549310
  25.6309310  64.8299310  46.4619310  24.3919310  64.9359310  45.5979310
  25.0669310  64.4699310  45.8999310  13.0689310  65.8949310  46.6759310
  13.4629310  65.8249310  45.8059310  13.6809310  65.4399310  47.2529310
  13.1979310  65.8279310  46.6379310  27.7899310  61.5749310  42.0479310
  27.7469310  62.1939310  42.7779310  27.4239310  60.7639310  42.3999310
  27.7379310  61.5509310  42.1869310  22.5399310  62.4389310  42.5269310
  21.8679310  61.7579310  42.5569310  22.6189310  62.6559310  41.5979310
  22.4639310  62.3799310  42.4119310  16.2269310  57.2919310  56.4899310
  16.0739310  57.5719310  55.5879310  15.9899310  58.0519310  57.0209310
  16.1769310  57.4249310  56.4429310  18.1599310  61.4129310  55.5959310
  18.0449310  61.1289310  54.6889310  17.2689310  61.5159310  55.9289310
  18.0309310  61.3899310  55.5219310  17.2049310  59.7399310  50.4419310
  16.6149310  59.0009310  50.2899310  17.8169310  59.7119310  49.7069310
  17.2079310  59.6419310  50.3279310  18.5899310  65.9319310  48.4739310
  18.5499310  64.9769310  48.4369310  18.1349310  66.1599310  49.2839310
  18.5269310  65.8389310  48.5729310  26.5549310  62.5849310  55.1559310
  25.8639310  61.9449310  55.3239310  26.3469310  62.9409310  54.2929310
  26.4399310  62.5479310  55.0669310  12.1729310  61.6869310  42.2929310
  12.8379310  62.2869310  42.6309310  11.3409310  62.1209310  42.4819310
  12.1519310  61.8189310  42.3609310  19.9199310  64.8679310  39.5819310
  19.5369310  64.5589310  38.7609310  20.1589310  65.7789310  39.4069310
  19.9019310  64.9449310  39.4549310  14.1759310  56.3229310  45.2599310
  13.9379310  55.5039310  44.8259310  13.4149310  56.8909310  45.1329310
  14.0479310  56.2909310  45.1879310  18.7469310  55.1379310  41.2639310
  18.9919310  54.2629310  41.5649310  18.5319310  55.6149310  42.0649310
  18.7509310  55.0869310  41.4049310  23.9789310  56.8869310  43.8019310
  23.6849310  57.6019310  43.2379310  23.7079310  57.1479310  44.6819310
  23.9069310  57.0119310  43.8419310  27.9319310  67.4389310  45.5029310
  27.0169310  67.4489310  45.2199310  28.0539310  66.5709310  45.8879310
  27.8299310  67.3289310  45.5159310  15.5849310  59.4029310  39.2979310
  14.6599310  59.1599310  39.3359310  15.5809310  60.3229310  39.0329310
  15.4669310  59.4899310  39.2689310  17.5539310  63.7559310  42.5869310
  18.3769310  64.2419310  42.5489310  17.6049310  63.2609310  43.4039310
  17.6659310  63.7549310  42.6859310  19.8489310  65.3929310  42.5889310
  19.3259310  66.0959310  42.9749310  19.8609310  65.5889310  41.6529310
  19.7839310  65.5079310  42.5189310  26.8919310  60.2599310  38.7529310
  27.3699310  59.9069310  38.0039310  27.3939310  61.0319310  39.0159310
  27.0169310  60.3139310  38.6909310  15.7859310  65.6959310  53.5829310
  15.7479310  66.0129310  52.6809310  14.9139310  65.3369310  53.7479310
  15.6689310  65.6899310  53.4889310  18.7199310  63.3929310  50.6369310
  19.0449310  62.5899310  51.0439310  17.8509310  63.1609310  50.3109310
  18.6499310  63.2609310  50.6469310  14.3359310  64.3269310  56.6059310
  15.1389310  64.8369310  56.4959310  13.8859310  64.7449310  57.3399310
  14.3809310  64.4459310  56.6859310  24.8319310  61.4749310  45.8659310
  25.3299310  61.2679310  45.0749310  25.0159310  62.3999310  46.0299310
  24.9189310  61.5669310  45.7859310  19.4569310  60.2209310  39.6069310
  18.9759310  59.4039310  39.4759310  19.8909310  60.3799310  38.7689310
  19.4509310  60.1369310  39.4829310  13.4209310  65.2579310  40.0649310
  14.1879310  64.9349310  40.5399310  12.6789310  65.0189310  40.6199310
  13.4239310  65.1859310  40.1969310  12.7589310  59.0139310  48.7609310
  13.5569310  58.6639310  48.3659310  12.7389310  58.6339310  49.6389310
  12.8579310  58.9199310  48.8229310  22.1529310  62.0709310  46.4889310
  21.7459310  62.8309310  46.0729310  23.0149310  62.0059310  46.0789310
  22.2109310  62.1599310  46.3829310  26.6899310  63.3099310  43.9709310
  27.3639310  63.7219310  44.5109310  25.8799310  63.7559310  44.2169310
  26.6729310  63.4199310  44.0709310  14.8439310  63.8009310  47.4739310
  15.8009310  63.7849310  47.4549310  14.5989310  62.9869310  47.9139310
  14.9349310  63.6949310  47.5279310  25.1469310  57.8109310  50.0129310
  24.6929310  58.2529310  49.2949310  24.6049310  57.9859310  50.7819310
  25.0199310  57.8899310  50.0189310  30.3119310  62.7389310  48.9569310
  29.9229310  62.2649310  49.6929310  29.7769310  63.5279310  48.8709310
  30.1939310  62.7789310  49.0399310  23.6859310  59.2869310  47.8229310
  24.3119310  59.7369310  47.2559310  23.5439310  58.4399310  47.3989310
  23.7479310  59.2359310  47.6959310  16.2449310  59.3249310  42.2959310
  16.1549310  59.0539310  41.3829310  15.3469310  59.4819310  42.5889310
  16.1179310  59.3109310  42.2169310  25.8319310  55.2159310  45.0919310
  25.1699310  55.6219310  44.5319310  26.5269310  54.9529310  44.4889310
  25.8359310  55.2349310  44.9429310  27.4449310  60.4479310  50.4709310
  27.1799310  59.7959310  51.1209310  27.6639310  59.9349310  49.6929310
  27.4389310  60.2989310  50.4549310  18.1909310  62.2409310  44.6959310
  18.3789310  61.4889310  44.1339310  19.0469310  62.6319310  44.8659310
  18.3239310  62.1949310  44.6459310  19.8469310  57.1009310  53.9359310
  20.7689310  57.1769310  54.1799310  19.3949310  57.7179310  54.5109310
  19.9069310  57.1889310  54.0399310  20.6409310  67.4479310  38.9789310
  21.4849310  67.4099310  39.4299310  20.8639310  67.6529310  38.0709310
  20.7779310  67.4689310  38.9209310  17.6919310  63.2379310  47.2479310
  17.9489310  62.8199310  46.4259310  17.7759310  62.5459310  47.9039310
  17.7359310  63.0959310  47.2269310  29.8669310  61.5279310  51.8689310
  28.9709310  61.2029310  51.7819310  29.7669310  62.4229310  52.1939310
  29.7389310  61.6009310  51.8999310  22.0629310  63.2149310  39.9069310
  22.7929310  63.8349310  39.8959310  21.2809310  63.7659310  39.8759310
  22.0559310  63.3649310  39.9009310  21.6949310  60.5959310  49.0229310
  21.2459310  59.8419310  49.4049310  22.4169310  60.2159310  48.5229310
  21.7299310  60.4509310  49.0079310  23.2299310  64.7199310  50.7349310
  22.9539310  65.5439310  51.1369310  24.1809310  64.7069310  50.8439310
  23.3169310  64.8239310  50.7999310  18.7179310  57.3329310  43.0059310
  18.5699310  58.2759310  42.9279310  17.9259310  57.0009310  43.4299310
  18.5979310  57.4109310  43.0499310  22.3689310  57.6769310  55.4249310
  21.9029310  58.2749310  56.0089310  22.9639310  58.2409310  54.9299310
  22.3849310  57.8249310  55.4359310  17.9739310  57.8219310  39.6009310
  17.0569310  57.6069310  39.7669310  18.4489310  57.4339310  40.3359310
  17.9169310  57.7449310  39.7159310  14.6159310  62.5679310  52.8719310
  13.9369310  63.2069310  53.0919310  14.2069310  61.7189310  53.0349310
  14.4759310  62.5409310  52.9209310  12.7639310  55.4769310  51.4539310
  13.6259310  55.4379310  51.8679310  12.9499310  55.6269310  50.5269310
  12.8979310  55.4909310  51.3879310  23.6809310  63.0099310  48.8209310
  23.4129310  63.6529310  49.4779310  22.8819310  62.8279310  48.3249310
  23.5439310  63.0689310  48.8409310  12.2229310  60.6479310  55.4409310
  11.6229310  61.3809310  55.5819310  12.7699310  60.6309310  56.2269310
  12.2159310  60.7399310  55.5599310  13.5789310  59.5489310  43.4839310
  13.9789310  60.1339310  44.1279310  13.1149310  60.1339310  42.8849310
  13.5709310  59.6989310  43.4899310  23.6579310  61.3439310  51.3829310
  23.4949310  61.6529310  50.4919310  22.7969310  61.0799310  51.7059310
  23.5269310  61.3499310  51.3109310  15.5389310  54.2279310  39.5289310
  15.5399310  54.9699310  40.1329310  16.0429310  54.5319310  38.7749310
  15.6039310  54.3619310  39.5099310  16.4549310  66.2639310  39.8129310
  16.5409310  66.2129310  38.8609310  15.9019310  67.0319310  39.9619310
  16.3949310  66.3559310  39.7099310  23.5899310  65.0069310  53.9189310
  22.7719310  64.8509310  53.4479310  23.6379310  65.9589310  54.0079310
  23.4919310  65.1089310  53.8699310  27.9399310  59.7029310  55.1499310
  28.6529310  59.0709310  55.2449310  28.3799310  60.5399310  55.0039310
  28.0869310  59.7289310  55.1429310  13.9689310  61.4849310  48.6719310
  13.1899310  61.9909310  48.9029310  13.7069310  60.5719310  48.7949310
  13.8359310  61.4329310  48.7169310  17.0649310  65.6419310  45.7779310
  16.9779310  66.4219310  46.3269310  17.1369310  64.9179310  46.4009310
  17.0629310  65.6489310  45.9279310  12.6959310  56.7259310  40.9829310
  12.6389310  56.4719310  40.0619310  12.1479310  57.5079310  41.0509310
  12.6189310  56.7939310  40.8739310  17.1669310  60.7829310  52.9619310
  17.0759310  60.6629310  52.0169310  16.4429310  61.3609310  53.1999310
  17.0629310  60.8419310  52.8709310  18.7919310  60.3449310  42.2999310
  19.1649310  60.2799310  41.4209310  17.8869310  60.0489310  42.1989310
  18.7239310  60.2979310  42.1749310  20.9369310  57.2419310  44.6849310
  20.0849310  57.1039310  44.2729310  20.9869310  58.1889310  44.8209310
  20.8349310  57.3459310  44.6499310  15.8089310  57.9099310  53.8759310
  16.5999310  57.9429310  53.3389310  15.4489310  58.7959310  53.8279310
  15.8639310  58.0269310  53.8009310  21.9819310  60.9129310  37.9239310
  21.9629310  61.5629310  38.6259310  22.3369310  60.1249310  38.3359310
  22.0249310  60.8959310  38.0659310  23.9899310  55.4029310  52.7799310
  23.7299310  54.6269310  52.2829310  24.9459310  55.4079310  52.7319310
  24.0789310  55.3039310  52.7099310  27.1069310  59.0009310  42.8939310
  26.8859310  58.7509310  43.7919310  27.9229310  58.5349310  42.7109310
  27.1829310  58.9089310  42.9859310  20.9099310  57.5509310  48.0609310
  20.0589310  57.1199310  47.9739310  21.0089310  57.6979310  49.0019310
  20.8129310  57.5149310  48.1699310  19.5409310  54.5719310  55.2119310
  18.9879310  54.8829310  55.9279310  19.6019310  55.3179310  54.6149310
  19.4779310  54.7069310  55.2269310  29.7979310  59.0249310  40.7299310
  28.9749310  58.5379310  40.6819310  29.5459310  59.8889310  41.0579310
  29.6609310  59.0729310  40.7659310  26.8549310  66.3579310  54.7489310
  26.2149310  65.8249310  55.2209310  26.8169310  66.0349310  53.8479310
  26.7679310  66.2479310  54.6939310  14.8849310  57.7059310  47.6749310
  14.7909310  57.2389310  46.8449310  15.7079310  57.3829310  48.0399310
  14.9779310  57.6049310  47.6159310  29.5219310  64.1949310  52.5659310
  28.6309310  64.4109310  52.8439310  29.7989310  64.9479310  52.0439310
  29.4429310  64.3189310  52.5349310  28.5899310  66.2169310  42.9979310
  28.6119310  66.3329310  43.9479310  28.7629310  67.0899310  42.6469310
  28.6149310  66.3439310  43.0749310  17.0479310  56.9639310  48.9309310
  17.4999310  56.3849310  49.5449310  17.6109310  56.9789310  48.1579310
  17.1779310  56.8919310  48.9109310  13.6299310  60.0639310  53.1999310
  13.0639310  60.4249310  52.5179310  13.1339310  60.1799310  54.0099310
  13.4939310  60.1249310  53.2159310  26.9489310  65.2339310  52.3499310
  26.3389310  64.4979310  52.4059310  26.5169310  65.8579310  51.7669310
  26.8159310  65.2189310  52.2829310  16.0469310  65.8219310  50.7749310
  15.5859310  66.1659310  50.0099310  16.1279310  64.8839310  50.6029310
  15.9979310  65.7459310  50.6549310  14.2429310  63.4629310  42.9599310
  15.1989310  63.4949310  42.9869310  13.9719310  64.3799310  42.9979310
  14.3309310  63.5839310  42.9679310  19.0829310  58.9219310  55.9029310
  18.3179310  58.5249310  56.3209310  18.8289310  59.8329310  55.7549310
  18.9519310  58.9879310  55.9379310  15.6019310  56.7529310  40.9309310
  15.9099310  56.8179310  41.8349310  14.6839310  56.4949310  41.0099310
  15.5239310  56.7279310  41.0569310  24.9109310  61.0139310  43.3149310
  25.5309310  61.4579310  42.7359310  24.1009310  61.5179310  43.2299310
  24.8869310  61.1359310  43.2299310  11.5309310  67.0659310  39.2759310
  12.1589310  66.5429310  39.7749310  12.0249310  67.3719310  38.5149310
  11.6749310  67.0379310  39.2429310  25.8039310  67.0929310  50.3689310
  25.6309310  67.0159310  49.4309310  26.5869310  67.6399310  50.4239310
  25.8819310  67.1529310  50.2559310  20.6219310  63.4769310  44.6879310
  21.1359310  62.8769310  44.1479310  20.3479310  64.1669310  44.0839310
  20.6519310  63.4879310  44.5419310  30.6789310  58.0419310  44.7329310
  31.2609310  58.5269310  44.1469310  30.1129310  58.7119310  45.1159310
  30.6809310  58.1899310  44.7069310  25.0579310  64.8179310  56.0409310
  24.2469310  64.8559310  55.5339310  25.4219310  63.9549310  55.8459310
  25.0009310  64.7129310  55.9509310  12.0029310  63.4509310  45.1759310
  12.5999310  63.7069310  44.4719310  12.3059310  63.9459310  45.9379310
  12.1179310  63.5469310  45.1829310  14.6839310  66.9579310  48.9809310
  14.9429310  67.6509310  48.3729310  13.8119310  67.2169310  49.2799310
  14.6059310  67.0799310  48.9409310  28.3719310  64.5479310  45.9619310
  29.2249310  64.2069310  45.6919310  28.3939310  64.5189310  46.9179310
  28.4839310  64.4999310  46.0489310  21.3019310  61.4589310  53.8669310
  20.5479310  61.1289310  53.3779310  21.1009310  61.2609310  54.7809310
  21.1799310  61.3909310  53.9209310  24.8519310  60.7819310  55.9359310
  24.0679310  60.7429310  56.4839310  25.4889310  60.2309310  56.3899310
  24.8329310  60.7069310  56.0639310  26.5179310  65.2189310  41.1769310
  26.9139310  65.5599310  41.9789310  27.0089310  65.6379310  40.4699310
  26.6309310  65.3159310  41.1889310  26.2469310  59.3049310  53.1389310
  26.9399310  59.4989310  53.7709310  25.6109310  60.0109310  53.2569310
  26.2539310  59.4199310  53.2349310  18.8239310  56.2459310  32.5979310
  19.0519310  56.2179310  33.5269310  18.1949310  55.5339310  32.4849310
  18.7729310  56.1509310  32.7029310  16.7399310  54.5319310  32.1039310
  16.1799310  54.9799310  32.7379310  16.5939310  53.6009310  32.2709310
  16.6499310  54.4699310  32.2059310  17.5589310  62.7729310  21.3519310
  17.4049310  63.2299310  22.1789310  18.2709310  62.1629310  21.5439310
  17.6299310  62.7529310  21.4819310  20.9539310  57.9819310  31.9569310
  20.3509310  57.3409310  32.3319310  21.7429310  57.9129310  32.4949310
  20.9779310  57.8919310  32.0739310  21.4919310  54.4189310  38.2349310
  22.3839310  54.1899310  37.9709310  20.9699310  54.2979310  37.4419310
  21.5399310  54.3749310  38.0999310  23.3769310  57.8079310  33.2249310
  23.5549310  56.9259310  33.5509310  23.6959310  58.3879310  33.9169310
  23.4409310  57.7689310  33.3559310  23.0649310  65.8039310  25.4709310
  22.6389310  65.1969310  24.8669310  22.4019310  66.4709310  25.6489310
  22.9259310  65.8119310  25.4169310  28.8169310  56.4359310  24.7239310
  28.8849310  55.4889310  24.5999310  29.6859310  56.7009310  25.0249310
  28.9369310  56.3489310  24.7469310  29.9359310  60.7269310  26.5649310
  29.1569310  60.8369310  27.1099310  30.2799310  61.6129310  26.4559310
  29.8799310  60.8539310  26.6209310  21.0319310  56.8549310  20.7129310
  20.7659310  56.3919310  21.5079310  21.0479310  56.1779310  20.0369310
  20.9999310  56.7089310  20.7289310  21.2669310  64.0429310  33.9969310
  21.1389310  63.1779310  34.3859310  21.7099310  63.8679310  33.1659310
  21.3069310  63.9099310  33.9399310  24.1429310  64.9949310  21.0159310
  24.9129310  65.0159310  21.5829310  24.4619310  64.6279310  20.1919310
  24.2819310  64.9509310  20.9829310  29.8789310  64.6319310  22.7459310
  29.5129310  65.2729310  23.3559310  29.1139310  64.2099310  22.3539310
  29.7339310  64.6599310  22.7739310  12.3909310  58.3729310  32.5539310
  12.6679310  58.9419310  33.2719310  11.7889310  57.7499310  32.9609310
  12.3499310  58.3659310  32.6979310  27.8609310  66.2319310  19.7629310
  27.9029310  66.0979310  18.8159310  28.7469310  66.4989310  20.0059310
  27.9799310  66.2489310  19.6729310  13.2639310  64.7099310  35.1469310
  12.3429310  64.4899310  35.0069310  13.3439310  64.8169310  36.0939310
  13.1559310  64.6949310  35.2499310  28.2039310  56.6619310  21.8509310
  28.3359310  56.5179310  22.7879310  27.3359310  57.0609310  21.7909310
  28.1099310  56.6939310  21.9639310  16.9659310  58.9789310  26.1239310
  16.5589310  58.9779310  25.2569310  16.4799310  59.6419310  26.6149310
  16.8519310  59.0639310  26.0759310  15.0849310  55.3749310  34.1419310
  15.2919310  56.2729310  34.3989310  14.7289310  54.9739310  34.9349310
  15.0659310  55.4379310  34.2759310  16.3929310  56.1659310  24.8419310
  15.6349310  56.1529310  25.4269310  16.9249310  55.4219310  25.1229310
  16.3639310  56.0689310  24.9529310  23.4329310  59.8639310  35.1409310
  24.0189310  60.1769310  35.8299310  22.7069310  60.4889310  35.1409310
  23.4149310  59.9839310  35.2289310  21.0529310  60.3649310  24.6729310
  20.2279310  60.3469310  24.1879310  20.8019310  60.1789310  25.5779310
  20.9149310  60.3389310  24.7269310  12.9539310  58.3769310  38.1949310
  12.7559310  58.4579310  37.2629310  12.1599310  58.6799310  38.6359310
  12.8269310  58.4259310  38.1319310  15.8779310  61.9869310  19.3429310
  15.2749310  62.7239310  19.2469310  16.5069310  62.2769310  20.0039310
  15.8809310  62.1179310  19.4149310  19.0279310  60.9399310  29.6179310
  19.9089310  61.2319310  29.8499310  19.1139310  60.6059310  28.7249310
  19.1519310  60.9349310  29.5329310  23.3249310  56.7589310  27.8019310
  22.3729310  56.6959310  27.8729310  23.6529310  56.0309310  28.3299310
  23.2449310  56.6579310  27.8789310  28.4539310  64.7669310  29.9239310
  28.8939310  65.2739310  30.6069310  27.7819310  64.2699310  30.3899310
  28.4249310  64.7679310  30.0709310  29.6689310  66.5349310  32.1519310
  28.9549310  67.1399310  31.9529310  30.3849310  67.0979310  32.4489310
  29.6699310  66.6839310  32.1649310  18.9739310  64.2879310  36.9879310
  18.8169310  63.3439310  36.9519310  18.8849310  64.5799310  36.0809310
  18.9419310  64.2039310  36.8669310  25.8039310  58.0839310  21.6659310
  25.9079310  58.4279310  22.5529310  25.6739310  58.8599310  21.1209310
  25.8009310  58.2269310  21.7099310  28.4459310  58.9319310  28.9929310
  29.3579310  58.9429310  29.2859310  28.4459310  58.3469310  28.2349310
  28.5629310  58.8579310  28.9339310  26.2909310  63.2689310  30.8439310
  25.4159310  63.0119310  30.5539310  26.6429310  62.4859310  31.2679310
  26.2239310  63.1359310  30.8609310  18.0329310  55.2579310  19.6529310
  18.3749310  55.2669310  20.5469310  17.5479310  56.0799310  19.5749310
  18.0149310  55.3649310  19.7569310  13.2019310  55.1739310  29.5569310
  14.0359310  55.6279310  29.4329310  12.6139310  55.5729310  28.9169310
  13.2339310  55.2829310  29.4599310  14.3009310  54.3069310  36.5689310
  13.4679310  53.8799310  36.7699310  14.2679310  55.1339310  37.0489310
  14.1899310  54.3579310  36.6559310  20.6359310  59.7689310  27.3069310
  20.7219310  58.9849310  27.8499310  21.0759310  60.4559310  27.8069310
  20.7029310  59.7569310  27.4399310  29.2979310  57.3869310  36.6469310
  28.3989310  57.0589310  36.6419310  29.6229310  57.2099310  35.7649310
  29.2239310  57.3219310  36.5339310  27.7319310  53.9079310  21.5209310
  27.8599310  54.8229310  21.2689310  26.7829310  53.8129310  21.6059310
  27.6269310  54.0129310  21.4999310  30.9069310  55.2459310  19.5219310
  30.7309310  56.0869310  19.1009310  30.0979310  54.7469310  19.4079310
  30.7809310  55.2899310  19.4539310  33.4759310  61.1739310  26.8999310
  33.4899310  60.8609310  27.8049310  33.4269310  62.1269310  26.9769310
  33.4719310  61.2559310  27.0259310  22.8689310  59.1099310  20.7829310
  22.2429310  58.3859310  20.8069310  23.0869310  59.2689310  21.7009310
  22.8169310  59.0379310  20.9029310  19.6069310  60.7579310  32.9029310
  18.7619310  60.4379310  33.2199310  20.0799310  59.9669310  32.6439310
  19.5589310  60.6159310  32.9109310  16.5339310  65.9439310  37.2369310
  17.3449310  65.4559310  37.0949310  16.2649310  66.2209310  36.3609310
  16.6029310  65.9169310  37.1059310  29.3349310  56.6249310  34.0779310
  28.4689310  56.4609310  33.7069310  29.9169310  56.0329310  33.5999310
  29.2989310  56.5279310  33.9689310  29.0409310  62.0749310  20.7839310
  28.5839310  61.8339310  21.5899310  29.9669310  61.9349310  20.9829310
  29.1009310  62.0259310  20.9129310  18.7959310  64.9839310  34.2649310
  19.6759310  64.6109310  34.2129310  18.2579310  64.4029310  33.7279310
  18.8399310  64.8619310  34.1899310  27.1659310  57.7919310  26.3719310
  27.8619310  57.4059310  25.8389310  26.5559310  57.0699310  26.5269310
  27.1769310  57.6499310  26.3229310  25.2399310  63.2409310  33.9139310
  24.6829310  62.8469310  33.2419310  24.6639310  63.8509310  34.3739310
  25.0949310  63.2689310  33.8869310  29.1539310  62.5019310  37.1079310
  28.3309310  62.8419310  36.7589310  29.0099310  62.4459310  38.0529310
  29.0309310  62.5379310  37.1839310  23.0669310  59.2279310  23.4469310
  22.2439310  59.5109310  23.8429310  23.7449310  59.6139310  24.0019310
  23.0489310  59.3129310  23.5689310  16.0789310  62.8189310  31.5399310
  15.7019310  62.6919310  32.4099310  15.5159310  62.3079310  30.9579310
  15.9589310  62.7379310  31.5769310  25.0859310  64.3289310  26.9949310
  25.6309310  64.8299310  27.6019310  24.3919310  64.9359310  26.7379310
  25.0669310  64.4699310  27.0399310  13.0689310  65.8949310  27.8159310
  13.4629310  65.8249310  26.9459310  13.6809310  65.4399310  28.3929310
  13.1979310  65.8279310  27.7779310  27.7899310  61.5749310  23.1879310
  27.7469310  62.1939310  23.9179310  27.4239310  60.7639310  23.5399310
  27.7379310  61.5509310  23.3269310  22.5399310  62.4389310  23.6669310
  21.8679310  61.7579310  23.6969310  22.6189310  62.6559310  22.7379310
  22.4639310  62.3799310  23.5519310  16.2269310  57.2919310  37.6299310
  16.0739310  57.5719310  36.7279310  15.9899310  58.0519310  38.1609310
  16.1769310  57.4249310  37.5829310  18.1599310  61.4129310  36.7359310
  18.0449310  61.1289310  35.8289310  17.2689310  61.5159310  37.0689310
  18.0309310  61.3899310  36.6619310  17.2049310  59.7399310  31.5819310
  16.6149310  59.0009310  31.4299310  17.8169310  59.7119310  30.8469310
  17.2079310  59.6419310  31.4679310  18.5899310  65.9319310  29.6139310
  18.5499310  64.9769310  29.5769310  18.1349310  66.1599310  30.4239310
  18.5269310  65.8389310  29.7129310  26.5549310  62.5849310  36.2959310
  25.8639310  61.9449310  36.4639310  26.3469310  62.9409310  35.4329310
  26.4399310  62.5479310  36.2069310  12.1729310  61.6869310  23.4329310
  12.8379310  62.2869310  23.7709310  11.3409310  62.1209310  23.6219310
  12.1519310  61.8189310  23.5009310  14.5059310  66.1319310  25.6349310
  15.1849310  65.8519310  26.2489310  14.6039310  67.0819310  25.5859310
  14.6049310  66.2179310  25.7079310  19.9199310  64.8679310  20.7219310
  19.5369310  64.5589310  19.9009310  20.1589310  65.7789310  20.5469310
  19.9019310  64.9449310  20.5949310  14.1759310  56.3229310  26.3999310
  13.9379310  55.5039310  25.9659310  13.4149310  56.8909310  26.2729310
  14.0479310  56.2909310  26.3279310  18.7469310  55.1379310  22.4039310
  18.9919310  54.2629310  22.7049310  18.5319310  55.6149310  23.2049310
  18.7509310  55.0869310  22.5449310  23.9789310  56.8869310  24.9419310
  23.6849310  57.6019310  24.3779310  23.7079310  57.1479310  25.8219310
  23.9069310  57.0119310  24.9819310  27.9319310  67.4389310  26.6429310
  27.0169310  67.4489310  26.3599310  28.0539310  66.5709310  27.0279310
  27.8299310  67.3289310  26.6559310  15.5849310  59.4029310  20.4379310
  14.6599310  59.1599310  20.4759310  15.5809310  60.3229310  20.1729310
  15.4669310  59.4899310  20.4089310  17.5539310  63.7559310  23.7269310
  18.3769310  64.2419310  23.6889310  17.6049310  63.2609310  24.5439310
  17.6659310  63.7549310  23.8259310  19.8489310  65.3929310  23.7289310
  19.3259310  66.0959310  24.1149310  19.8609310  65.5889310  22.7929310
  19.7839310  65.5079310  23.6589310  26.8919310  60.2599310  19.8929310
  27.3699310  59.9069310  19.1439310  27.3939310  61.0319310  20.1559310
  27.0169310  60.3139310  19.8309310  15.7859310  65.6959310  34.7229310
  15.7479310  66.0129310  33.8209310  14.9139310  65.3369310  34.8879310
  15.6689310  65.6899310  34.6289310  28.7439310  51.3399310  29.2919310
  28.8899310  51.7449310  30.1469310  27.7989310  51.4079310  29.1529310
  28.6419310  51.3999310  29.3839310  18.7199310  63.3929310  31.7769310
  19.0449310  62.5899310  32.1839310  17.8509310  63.1609310  31.4509310
  18.6499310  63.2609310  31.7869310  14.3359310  64.3269310  37.7459310
  15.1389310  64.8369310  37.6359310  13.8859310  64.7449310  38.4799310
  14.3809310  64.4459310  37.8259310  24.8319310  61.4749310  27.0059310
  25.3299310  61.2679310  26.2149310  25.0159310  62.3999310  27.1699310
  24.9189310  61.5669310  26.9259310  19.4569310  60.2209310  20.7469310
  18.9759310  59.4039310  20.6159310  19.8909310  60.3799310  19.9089310
  19.4509310  60.1369310  20.6229310  13.4209310  65.2579310  21.2049310
  14.1879310  64.9349310  21.6799310  12.6789310  65.0189310  21.7599310
  13.4239310  65.1859310  21.3369310  12.7589310  59.0139310  29.9009310
  13.5569310  58.6639310  29.5059310  12.7389310  58.6339310  30.7789310
  12.8579310  58.9199310  29.9629310  22.1529310  62.0709310  27.6289310
  21.7459310  62.8309310  27.2129310  23.0149310  62.0059310  27.2189310
  22.2109310  62.1599310  27.5229310  26.6899310  63.3099310  25.1109310
  27.3639310  63.7219310  25.6509310  25.8799310  63.7559310  25.3569310
  26.6729310  63.4199310  25.2109310  14.8439310  63.8009310  28.6139310
  15.8009310  63.7849310  28.5949310  14.5989310  62.9869310  29.0539310
  14.9349310  63.6949310  28.6679310  25.1469310  57.8109310  31.1529310
  24.6929310  58.2529310  30.4349310  24.6049310  57.9859310  31.9219310
  25.0199310  57.8899310  31.1589310  30.3119310  62.7389310  30.0969310
  29.9229310  62.2649310  30.8329310  29.7769310  63.5279310  30.0109310
  30.1939310  62.7789310  30.1799310  23.6859310  59.2869310  28.9629310
  24.3119310  59.7369310  28.3959310  23.5439310  58.4399310  28.5389310
  23.7479310  59.2359310  28.8359310  23.7099310  56.0319310  21.7189310
  22.9509310  56.2799310  21.1909310  24.2649310  56.8119310  21.7199310
  23.6839310  56.1639310  21.6519310  16.2449310  59.3249310  23.4359310
  16.1549310  59.0539310  22.5229310  15.3469310  59.4819310  23.7289310
  16.1179310  59.3109310  23.3569310  25.8319310  55.2159310  26.2319310
  25.1699310  55.6219310  25.6719310  26.5269310  54.9529310  25.6289310
  25.8359310  55.2349310  26.0829310  27.4449310  60.4479310  31.6109310
  27.1799310  59.7959310  32.2609310  27.6639310  59.9349310  30.8329310
  27.4389310  60.2989310  31.5949310  18.1909310  62.2409310  25.8359310
  18.3789310  61.4889310  25.2739310  19.0469310  62.6319310  26.0059310
  18.3239310  62.1949310  25.7859310  19.8469310  57.1009310  35.0759310
  20.7689310  57.1769310  35.3199310  19.3949310  57.7179310  35.6509310
  19.9069310  57.1889310  35.1799310  16.8379310  54.1109310  27.9949310
  17.0089310  55.0319310  28.1939310  17.4039310  53.6269310  28.5959310
  16.9319310  54.1669310  28.0969310  20.6409310  67.4479310  20.1189310
  21.4849310  67.4099310  20.5699310  20.8639310  67.6529310  19.2109310
  20.7779310  67.4689310  20.0609310  17.6919310  63.2379310  28.3879310
  17.9489310  62.8199310  27.5659310  17.7759310  62.5459310  29.0439310
  17.7359310  63.0959310  28.3669310  29.8669310  61.5279310  33.0089310
  28.9709310  61.2029310  32.9219310  29.7669310  62.4229310  33.3339310
  29.7389310  61.6009310  33.0399310  22.0629310  63.2149310  21.0469310
  22.7929310  63.8349310  21.0359310  21.2809310  63.7659310  21.0159310
  22.0559310  63.3649310  21.0409310  21.6949310  60.5959310  30.1629310
  21.2459310  59.8419310  30.5449310  22.4169310  60.2159310  29.6629310
  21.7299310  60.4509310  30.1479310  23.2299310  64.7199310  31.8749310
  22.9539310  65.5439310  32.2769310  24.1809310  64.7069310  31.9839310
  23.3169310  64.8239310  31.9399310  18.7179310  57.3329310  24.1459310
  18.5699310  58.2759310  24.0679310  17.9259310  57.0009310  24.5699310
  18.5979310  57.4109310  24.1899310  22.3689310  57.6769310  36.5649310
  21.9029310  58.2749310  37.1489310  22.9639310  58.2409310  36.0699310
  22.3849310  57.8249310  36.5759310  17.9739310  57.8219310  20.7409310
  17.0569310  57.6069310  20.9069310  18.4489310  57.4339310  21.4759310
  17.9169310  57.7449310  20.8559310  14.6159310  62.5679310  34.0119310
  13.9369310  63.2069310  34.2319310  14.2069310  61.7189310  34.1749310
  14.4759310  62.5409310  34.0609310  12.7639310  55.4769310  32.5939310
  13.6259310  55.4379310  33.0079310  12.9499310  55.6269310  31.6669310
  12.8979310  55.4909310  32.5279310  23.6809310  63.0099310  29.9609310
  23.4129310  63.6529310  30.6179310  22.8819310  62.8279310  29.4649310
  23.5439310  63.0689310  29.9809310  12.2229310  60.6479310  36.5809310
  11.6229310  61.3809310  36.7219310  12.7699310  60.6309310  37.3669310
  12.2159310  60.7399310  36.6999310  13.5789310  59.5489310  24.6239310
  13.9789310  60.1339310  25.2679310  13.1149310  60.1339310  24.0249310
  13.5709310  59.6989310  24.6299310  23.6579310  61.3439310  32.5229310
  23.4949310  61.6529310  31.6319310  22.7969310  61.0799310  32.8459310
  23.5269310  61.3499310  32.4509310  23.8799310  55.5649310  36.6609310
  23.8769310  55.2749310  35.7489310  23.2079310  56.2459310  36.6979310
  23.7929310  55.6149310  36.5489310  15.5389310  54.2279310  20.6689310
  15.5399310  54.9699310  21.2729310  16.0429310  54.5319310  19.9149310
  15.6039310  54.3619310  20.6499310  16.4549310  66.2639310  20.9529310
  16.5409310  66.2129310  20.0009310  15.9019310  67.0319310  21.1019310
  16.3949310  66.3559310  20.8499310  23.5899310  65.0069310  35.0589310
  22.7719310  64.8509310  34.5879310  23.6379310  65.9589310  35.1479310
  23.4919310  65.1089310  35.0099310  27.9399310  59.7029310  36.2899310
  28.6529310  59.0709310  36.3849310  28.3799310  60.5399310  36.1439310
  28.0869310  59.7289310  36.2829310  13.9689310  61.4849310  29.8119310
  13.1899310  61.9909310  30.0429310  13.7069310  60.5719310  29.9349310
  13.8359310  61.4329310  29.8569310  17.0649310  65.6419310  26.9179310
  16.9779310  66.4219310  27.4669310  17.1369310  64.9179310  27.5409310
  17.0629310  65.6489310  27.0679310  12.6959310  56.7259310  22.1229310
  12.6389310  56.4719310  21.2019310  12.1479310  57.5079310  22.1909310
  12.6189310  56.7939310  22.0139310  17.1669310  60.7829310  34.1019310
  17.0759310  60.6629310  33.1569310  16.4429310  61.3609310  34.3399310
  17.0629310  60.8419310  34.0109310  18.2489310  54.2989310  25.5539310
  17.8439310  53.9679310  26.3559310  18.3559310  53.5249310  25.0019310
  18.2109310  54.1579310  25.5859310  18.7919310  60.3449310  23.4399310
  19.1649310  60.2799310  22.5609310  17.8869310  60.0489310  23.3389310
  18.7239310  60.2979310  23.3149310  18.4909310  67.5019310  21.8739310
  17.7589310  67.0129310  21.4979310  19.1509310  67.5149310  21.1819310
  18.4809310  67.4409310  21.7379310  20.9369310  57.2419310  25.8249310
  20.0849310  57.1039310  25.4129310  20.9869310  58.1889310  25.9609310
  20.8349310  57.3459310  25.7899310  15.8089310  57.9099310  35.0159310
  16.5999310  57.9429310  34.4789310  15.4489310  58.7959310  34.9679310
  15.8639310  58.0269310  34.9409310  21.9819310  60.9129310  19.0639310
  21.9629310  61.5629310  19.7659310  22.3369310  60.1249310  19.4759310
  22.0249310  60.8959310  19.2059310  26.9649310  56.1629310  36.4849310
  27.0259310  55.8159310  35.5949310  26.0249310  56.2109310  36.6589310
  26.8519310  56.1249310  36.3929310  21.6549310  55.4159310  23.9159310
  21.4299310  56.2009310  24.4149310  22.5539310  55.5679310  23.6239310
  21.7419310  55.5359310  23.9429310  27.0819310  55.1359310  28.7859310
  27.9529310  54.7429310  28.8429310  26.9829310  55.3669310  27.8629310
  27.1809310  55.1149310  28.6749310  23.9899310  55.4029310  33.9199310
  23.7299310  54.6269310  33.4229310  24.9459310  55.4079310  33.8719310
  24.0789310  55.3039310  33.8499310  27.1069310  59.0009310  24.0339310
  26.8859310  58.7509310  24.9319310  27.9229310  58.5349310  23.8509310
  27.1829310  58.9089310  24.1259310  20.9099310  57.5509310  29.2009310
  20.0589310  57.1199310  29.1139310  21.0089310  57.6979310  30.1419310
  20.8129310  57.5149310  29.3099310  19.5409310  54.5719310  36.3519310
  18.9879310  54.8829310  37.0679310  19.6019310  55.3179310  35.7549310
  19.4779310  54.7069310  36.3669310  29.7979310  59.0249310  21.8699310
  28.9749310  58.5379310  21.8219310  29.5459310  59.8889310  22.1979310
  29.6609310  59.0729310  21.9059310  26.8549310  66.3579310  35.8889310
  26.2149310  65.8249310  36.3609310  26.8169310  66.0349310  34.9879310
  26.7679310  66.2479310  35.8339310  14.8849310  57.7059310  28.8149310
  14.7909310  57.2389310  27.9849310  15.7079310  57.3829310  29.1799310
  14.9779310  57.6049310  28.7559310  29.5219310  64.1949310  33.7059310
  28.6309310  64.4109310  33.9839310  29.7989310  64.9479310  33.1839310
  29.4429310  64.3189310  33.6749310  28.5899310  66.2169310  24.1379310
  28.6119310  66.3329310  25.0879310  28.7629310  67.0899310  23.7869310
  28.6149310  66.3439310  24.2149310  17.0479310  56.9639310  30.0709310
  17.4999310  56.3849310  30.6849310  17.6109310  56.9789310  29.2979310
  17.1779310  56.8919310  30.0509310  13.6299310  60.0639310  34.3399310
  13.0639310  60.4249310  33.6579310  13.1339310  60.1799310  35.1499310
  13.4939310  60.1249310  34.3559310  26.9489310  65.2339310  33.4899310
  26.3389310  64.4979310  33.5459310  26.5169310  65.8579310  32.9069310
  26.8159310  65.2189310  33.4229310  16.0469310  65.8219310  31.9149310
  15.5859310  66.1659310  31.1499310  16.1279310  64.8839310  31.7429310
  15.9979310  65.7459310  31.7949310  14.2429310  63.4629310  24.0999310
  15.1989310  63.4949310  24.1269310  13.9719310  64.3799310  24.1379310
  14.3309310  63.5839310  24.1079310  19.0829310  58.9219310  37.0429310
  18.3179310  58.5249310  37.4609310  18.8289310  59.8329310  36.8949310
  18.9519310  58.9879310  37.0779310  15.6019310  56.7529310  22.0709310
  15.9099310  56.8179310  22.9749310  14.6839310  56.4949310  22.1499310
  15.5239310  56.7279310  22.1969310  24.9109310  61.0139310  24.4549310
  25.5309310  61.4579310  23.8759310  24.1009310  61.5179310  24.3699310
  24.8869310  61.1359310  24.3699310  11.5309310  67.0659310  20.4159310
  12.1589310  66.5429310  20.9149310  12.0249310  67.3719310  19.6549310
  11.6749310  67.0379310  20.3829310  25.8039310  67.0929310  31.5089310
  25.6309310  67.0159310  30.5709310  26.5869310  67.6399310  31.5639310
  25.8819310  67.1529310  31.3959310  20.6219310  63.4769310  25.8279310
  21.1359310  62.8769310  25.2879310  20.3479310  64.1669310  25.2239310
  20.6519310  63.4879310  25.6819310  26.6639310  56.7059310  33.3869310
  26.3769310  57.5319310  33.7779310  26.4409310  56.7899310  32.4599310
  26.5979310  56.8229310  33.3189310  30.6789310  58.0419310  25.8729310
  31.2609310  58.5269310  25.2869310  30.1129310  58.7119310  26.2559310
  30.6809310  58.1899310  25.8469310  25.0579310  64.8179310  37.1809310
  24.2469310  64.8559310  36.6739310  25.4219310  63.9549310  36.9859310
  25.0009310  64.7129310  37.0909310  18.3979310  56.8609310  27.7389310
  18.2199310  57.4509310  27.0069310  18.8829310  56.1339310  27.3489310
  18.4369310  56.8439310  27.5959310  12.0029310  63.4509310  26.3159310
  12.5999310  63.7069310  25.6119310  12.3059310  63.9459310  27.0779310
  12.1179310  63.5469310  26.3229310  14.6839310  66.9579310  30.1209310
  14.9429310  67.6509310  29.5129310  13.8119310  67.2169310  30.4199310
  14.6059310  67.0799310  30.0809310  28.3719310  64.5479310  27.1019310
  29.2249310  64.2069310  26.8319310  28.3939310  64.5189310  28.0579310
  28.4839310  64.4999310  27.1889310  21.3019310  61.4589310  35.0069310
  20.5479310  61.1289310  34.5179310  21.1009310  61.2609310  35.9209310
  21.1799310  61.3909310  35.0609310  24.8519310  60.7819310  37.0759310
  24.0679310  60.7429310  37.6239310  25.4889310  60.2309310  37.5299310
  24.8329310  60.7069310  37.2039310  30.4479310  54.5739310  26.6099310
  29.8519310  54.2239310  27.2719310  31.1659310  53.9419310  26.5749310
  30.4639310  54.4489310  26.6899310  26.5179310  65.2189310  22.3169310
  26.9139310  65.5599310  23.1189310  27.0089310  65.6379310  21.6099310
  26.6309310  65.3159310  22.3289310  26.2469310  59.3049310  34.2789310
  26.9399310  59.4989310  34.9109310  25.6109310  60.0109310  34.3969310
  26.2539310  59.4199310  34.3749310  18.8239310  56.2459310  13.7379310
  19.0519310  56.2179310  14.6669310  18.1949310  55.5339310  13.6249310
  18.7729310  56.1509310  13.8429310  16.7399310  54.5319310  13.2439310
  16.1799310  54.9799310  13.8779310  16.5939310  53.6009310  13.4109310
  16.6499310  54.4699310  13.3459310  17.5589310  62.7729310   2.4919310
  17.4049310  63.2299310   3.3189310  18.2709310  62.1629310   2.6839310
  17.6299310  62.7529310   2.6219310  20.9539310  57.9819310  13.0969310
  20.3509310  57.3409310  13.4719310  21.7429310  57.9129310  13.6349310
  20.9779310  57.8919310  13.2139310  21.4919310  54.4189310  19.3749310
  22.3839310  54.1899310  19.1109310  20.9699310  54.2979310  18.5819310
  21.5399310  54.3749310  19.2399310  23.3769310  57.8079310  14.3649310
  23.5549310  56.9259310  14.6909310  23.6959310  58.3879310  15.0569310
  23.4409310  57.7689310  14.4959310  23.0649310  65.8039310   6.6109310
  22.6389310  65.1969310   6.0069310  22.4019310  66.4709310   6.7889310
  22.9259310  65.8119310   6.5569310  28.8169310  56.4359310   5.8639310
  28.8849310  55.4889310   5.7399310  29.6859310  56.7009310   6.1649310
  28.9369310  56.3489310   5.8869310  29.9359310  60.7269310   7.7049310
  29.1569310  60.8369310   8.2499310  30.2799310  61.6129310   7.5959310
  29.8799310  60.8539310   7.7609310  21.2669310  64.0429310  15.1369310
  21.1389310  63.1779310  15.5259310  21.7099310  63.8679310  14.3059310
  21.3069310  63.9099310  15.0799310  29.8789310  64.6319310   3.8859310
  29.5129310  65.2729310   4.4959310  29.1139310  64.2099310   3.4939310
  29.7339310  64.6599310   3.9139310  12.3909310  58.3729310  13.6939310
  12.6679310  58.9419310  14.4119310  11.7889310  57.7499310  14.1009310
  12.3499310  58.3659310  13.8379310  13.2639310  64.7099310  16.2869310
  12.3429310  64.4899310  16.1469310  13.3439310  64.8169310  17.2339310
  13.1559310  64.6949310  16.3899310  28.2039310  56.6619310   2.9909310
  28.3359310  56.5179310   3.9279310  27.3359310  57.0609310   2.9309310
  28.1099310  56.6939310   3.1039310  16.9659310  58.9789310   7.2639310
  16.5589310  58.9779310   6.3969310  16.4799310  59.6419310   7.7549310
  16.8519310  59.0639310   7.2159310  15.0849310  55.3749310  15.2819310
  15.2919310  56.2729310  15.5389310  14.7289310  54.9739310  16.0749310
  15.0659310  55.4379310  15.4159310  16.3929310  56.1659310   5.9819310
  15.6349310  56.1529310   6.5669310  16.9249310  55.4219310   6.2629310
  16.3639310  56.0689310   6.0929310  23.4329310  59.8639310  16.2809310
  24.0189310  60.1769310  16.9699310  22.7069310  60.4889310  16.2809310
  23.4149310  59.9839310  16.3689310  21.0529310  60.3649310   5.8129310
  20.2279310  60.3469310   5.3279310  20.8019310  60.1789310   6.7179310
  20.9149310  60.3389310   5.8669310  12.9539310  58.3769310  19.3349310
  12.7559310  58.4579310  18.4029310  12.1599310  58.6799310  19.7759310
  12.8269310  58.4259310  19.2719310  19.0279310  60.9399310  10.7579310
  19.9089310  61.2319310  10.9899310  19.1139310  60.6059310   9.8649310
  19.1519310  60.9349310  10.6729310  23.3249310  56.7589310   8.9419310
  22.3729310  56.6959310   9.0129310  23.6529310  56.0309310   9.4699310
  23.2449310  56.6579310   9.0189310  28.4539310  64.7669310  11.0639310
  28.8939310  65.2739310  11.7469310  27.7819310  64.2699310  11.5299310
  28.4249310  64.7679310  11.2109310  29.6689310  66.5349310  13.2919310
  28.9549310  67.1399310  13.0929310  30.3849310  67.0979310  13.5889310
  29.6699310  66.6839310  13.3049310  18.9739310  64.2879310  18.1279310
  18.8169310  63.3439310  18.0919310  18.8849310  64.5799310  17.2209310
  18.9419310  64.2039310  18.0069310  25.8039310  58.0839310   2.8059310
  25.9079310  58.4279310   3.6929310  25.6739310  58.8599310   2.2609310
  25.8009310  58.2269310   2.8499310  28.4459310  58.9319310  10.1329310
  29.3579310  58.9429310  10.4259310  28.4459310  58.3469310   9.3749310
  28.5629310  58.8579310  10.0739310  26.2909310  63.2689310  11.9839310
  25.4159310  63.0119310  11.6939310  26.6429310  62.4859310  12.4079310
  26.2239310  63.1359310  12.0009310  13.2019310  55.1739310  10.6969310
  14.0359310  55.6279310  10.5729310  12.6139310  55.5729310  10.0569310
  13.2339310  55.2829310  10.5999310  14.3009310  54.3069310  17.7089310
  13.4679310  53.8799310  17.9099310  14.2679310  55.1339310  18.1889310
  14.1899310  54.3579310  17.7959310  20.6359310  59.7689310   8.4469310
  20.7219310  58.9849310   8.9899310  21.0759310  60.4559310   8.9469310
  20.7029310  59.7569310   8.5799310  29.2979310  57.3869310  17.7869310
  28.3989310  57.0589310  17.7819310  29.6229310  57.2099310  16.9049310
  29.2239310  57.3219310  17.6739310  27.7319310  53.9079310   2.6609310
  27.8599310  54.8229310   2.4089310  26.7829310  53.8129310   2.7459310
  27.6269310  54.0129310   2.6399310  33.4759310  61.1739310   8.0399310
  33.4899310  60.8609310   8.9449310  33.4269310  62.1269310   8.1169310
  33.4719310  61.2559310   8.1659310  22.8689310  59.1099310   1.9229310
  22.2429310  58.3859310   1.9469310  23.0869310  59.2689310   2.8409310
  22.8169310  59.0379310   2.0429310  19.6069310  60.7579310  14.0429310
  18.7619310  60.4379310  14.3599310  20.0799310  59.9669310  13.7839310
  19.5589310  60.6159310  14.0509310  16.5339310  65.9439310  18.3769310
  17.3449310  65.4559310  18.2349310  16.2649310  66.2209310  17.5009310
  16.6029310  65.9169310  18.2459310  29.3349310  56.6249310  15.2179310
  28.4689310  56.4609310  14.8469310  29.9169310  56.0329310  14.7399310
  29.2989310  56.5279310  15.1089310  29.0409310  62.0749310   1.9239310
  28.5839310  61.8339310   2.7299310  29.9669310  61.9349310   2.1229310
  29.1009310  62.0259310   2.0529310  18.7959310  64.9839310  15.4049310
  19.6759310  64.6109310  15.3529310  18.2579310  64.4029310  14.8679310
  18.8399310  64.8619310  15.3299310  27.1659310  57.7919310   7.5119310
  27.8619310  57.4059310   6.9789310  26.5559310  57.0699310   7.6669310
  27.1769310  57.6499310   7.4629310  25.2399310  63.2409310  15.0539310
  24.6829310  62.8469310  14.3819310  24.6639310  63.8509310  15.5139310
  25.0949310  63.2689310  15.0269310  29.1539310  62.5019310  18.2479310
  28.3309310  62.8419310  17.8989310  29.0099310  62.4459310  19.1929310
  29.0309310  62.5379310  18.3239310  23.0669310  59.2279310   4.5869310
  22.2439310  59.5109310   4.9829310  23.7449310  59.6139310   5.1419310
  23.0489310  59.3129310   4.7089310  16.0789310  62.8189310  12.6799310
  15.7019310  62.6919310  13.5499310  15.5159310  62.3079310  12.0979310
  15.9589310  62.7379310  12.7169310  25.0859310  64.3289310   8.1349310
  25.6309310  64.8299310   8.7419310  24.3919310  64.9359310   7.8779310
  25.0669310  64.4699310   8.1799310  13.0689310  65.8949310   8.9559310
  13.4629310  65.8249310   8.0859310  13.6809310  65.4399310   9.5329310
  13.1979310  65.8279310   8.9179310  27.7899310  61.5749310   4.3279310
  27.7469310  62.1939310   5.0579310  27.4239310  60.7639310   4.6799310
  27.7379310  61.5509310   4.4669310  22.5399310  62.4389310   4.8069310
  21.8679310  61.7579310   4.8369310  22.6189310  62.6559310   3.8779310
  22.4639310  62.3799310   4.6919310  16.2269310  57.2919310  18.7699310
  16.0739310  57.5719310  17.8679310  15.9899310  58.0519310  19.3009310
  16.1769310  57.4249310  18.7229310  18.1599310  61.4129310  17.8759310
  18.0449310  61.1289310  16.9689310  17.2689310  61.5159310  18.2089310
  18.0309310  61.3899310  17.8019310  17.2049310  59.7399310  12.7219310
  16.6149310  59.0009310  12.5699310  17.8169310  59.7119310  11.9869310
  17.2079310  59.6419310  12.6079310  18.5899310  65.9319310  10.7539310
  18.5499310  64.9769310  10.7169310  18.1349310  66.1599310  11.5639310
  18.5269310  65.8389310  10.8529310  26.5549310  62.5849310  17.4359310
  25.8639310  61.9449310  17.6039310  26.3469310  62.9409310  16.5729310
  26.4399310  62.5479310  17.3469310  12.1729310  61.6869310   4.5729310
  12.8379310  62.2869310   4.9109310  11.3409310  62.1209310   4.7619310
  12.1519310  61.8189310   4.6409310  14.5059310  66.1319310   6.7749310
  15.1849310  65.8519310   7.3889310  14.6039310  67.0819310   6.7259310
  14.6049310  66.2179310   6.8479310  14.1759310  56.3229310   7.5399310
  13.9379310  55.5039310   7.1059310  13.4149310  56.8909310   7.4129310
  14.0479310  56.2909310   7.4679310  18.7469310  55.1379310   3.5439310
  18.9919310  54.2629310   3.8449310  18.5319310  55.6149310   4.3449310
  18.7509310  55.0869310   3.6849310  23.9789310  56.8869310   6.0819310
  23.6849310  57.6019310   5.5179310  23.7079310  57.1479310   6.9619310
  23.9069310  57.0119310   6.1219310  27.9319310  67.4389310   7.7829310
  27.0169310  67.4489310   7.4999310  28.0539310  66.5709310   8.1679310
  27.8299310  67.3289310   7.7959310  17.5539310  63.7559310   4.8669310
  18.3769310  64.2419310   4.8289310  17.6049310  63.2609310   5.6839310
  17.6659310  63.7549310   4.9659310  19.8489310  65.3929310   4.8689310
  19.3259310  66.0959310   5.2549310  19.8609310  65.5889310   3.9329310
  19.7839310  65.5079310   4.7989310  15.7859310  65.6959310  15.8629310
  15.7479310  66.0129310  14.9609310  14.9139310  65.3369310  16.0279310
  15.6689310  65.6899310  15.7689310  28.7439310  51.3399310  10.4319310
  28.8899310  51.7449310  11.2869310  27.7989310  51.4079310  10.2929310
  28.6419310  51.3999310  10.5239310  18.7199310  63.3929310  12.9169310
  19.0449310  62.5899310  13.3239310  17.8509310  63.1609310  12.5909310
  18.6499310  63.2609310  12.9269310  14.3359310  64.3269310  18.8859310
  15.1389310  64.8369310  18.7759310  13.8859310  64.7449310  19.6199310
  14.3809310  64.4459310  18.9659310  24.8319310  61.4749310   8.1459310
  25.3299310  61.2679310   7.3549310  25.0159310  62.3999310   8.3099310
  24.9189310  61.5669310   8.0659310  13.4209310  65.2579310   2.3449310
  14.1879310  64.9349310   2.8199310  12.6789310  65.0189310   2.8999310
  13.4239310  65.1859310   2.4769310  12.7589310  59.0139310  11.0409310
  13.5569310  58.6639310  10.6459310  12.7389310  58.6339310  11.9189310
  12.8579310  58.9199310  11.1029310  22.1529310  62.0709310   8.7689310
  21.7459310  62.8309310   8.3529310  23.0149310  62.0059310   8.3589310
  22.2109310  62.1599310   8.6629310  26.6899310  63.3099310   6.2509310
  27.3639310  63.7219310   6.7909310  25.8799310  63.7559310   6.4969310
  26.6729310  63.4199310   6.3509310  14.8439310  63.8009310   9.7539310
  15.8009310  63.7849310   9.7349310  14.5989310  62.9869310  10.1939310
  14.9349310  63.6949310   9.8079310  25.1469310  57.8109310  12.2929310
  24.6929310  58.2529310  11.5749310  24.6049310  57.9859310  13.0619310
  25.0199310  57.8899310  12.2989310  30.3119310  62.7389310  11.2369310
  29.9229310  62.2649310  11.9729310  29.7769310  63.5279310  11.1509310
  30.1939310  62.7789310  11.3199310  23.6859310  59.2869310  10.1029310
  24.3119310  59.7369310   9.5359310  23.5439310  58.4399310   9.6789310
  23.7479310  59.2359310   9.9759310  23.7099310  56.0319310   2.8589310
  22.9509310  56.2799310   2.3309310  24.2649310  56.8119310   2.8599310
  23.6839310  56.1639310   2.7919310  16.2449310  59.3249310   4.5759310
  16.1549310  59.0539310   3.6629310  15.3469310  59.4819310   4.8689310
  16.1179310  59.3109310   4.4969310  25.8319310  55.2159310   7.3719310
  25.1699310  55.6219310   6.8119310  26.5269310  54.9529310   6.7689310
  25.8359310  55.2349310   7.2229310  27.4449310  60.4479310  12.7509310
  27.1799310  59.7959310  13.4009310  27.6639310  59.9349310  11.9729310
  27.4389310  60.2989310  12.7349310  18.1909310  62.2409310   6.9759310
  18.3789310  61.4889310   6.4139310  19.0469310  62.6319310   7.1459310
  18.3239310  62.1949310   6.9259310  19.8469310  57.1009310  16.2159310
  20.7689310  57.1769310  16.4599310  19.3949310  57.7179310  16.7909310
  19.9069310  57.1889310  16.3199310  16.8379310  54.1109310   9.1349310
  17.0089310  55.0319310   9.3339310  17.4039310  53.6269310   9.7359310
  16.9319310  54.1669310   9.2369310  17.6919310  63.2379310   9.5279310
  17.9489310  62.8199310   8.7059310  17.7759310  62.5459310  10.1839310
  17.7359310  63.0959310   9.5069310  28.4979310  53.9769310  18.9509310
  27.9569310  53.4619310  19.5489310  28.0339310  54.8099310  18.8639310
  28.3699310  54.0179310  19.0169310  29.8669310  61.5279310  14.1489310
  28.9709310  61.2029310  14.0619310  29.7669310  62.4229310  14.4739310
  29.7389310  61.6009310  14.1799310  22.0629310  63.2149310   2.1869310
  22.7929310  63.8349310   2.1759310  21.2809310  63.7659310   2.1559310
  22.0559310  63.3649310   2.1809310  21.6949310  60.5959310  11.3029310
  21.2459310  59.8419310  11.6849310  22.4169310  60.2159310  10.8029310
  21.7299310  60.4509310  11.2879310  23.2299310  64.7199310  13.0149310
  22.9539310  65.5439310  13.4169310  24.1809310  64.7069310  13.1239310
  23.3169310  64.8239310  13.0799310  18.7179310  57.3329310   5.2859310
  18.5699310  58.2759310   5.2079310  17.9259310  57.0009310   5.7099310
  18.5979310  57.4109310   5.3299310  22.3689310  57.6769310  17.7049310
  21.9029310  58.2749310  18.2889310  22.9639310  58.2409310  17.2099310
  22.3849310  57.8249310  17.7159310  17.9739310  57.8219310   1.8809310
  17.0569310  57.6069310   2.0469310  18.4489310  57.4339310   2.6159310
  17.9169310  57.7449310   1.9959310  14.6159310  62.5679310  15.1519310
  13.9369310  63.2069310  15.3719310  14.2069310  61.7189310  15.3149310
  14.4759310  62.5409310  15.2009310  12.7639310  55.4769310  13.7339310
  13.6259310  55.4379310  14.1479310  12.9499310  55.6269310  12.8069310
  12.8979310  55.4909310  13.6679310  23.6809310  63.0099310  11.1009310
  23.4129310  63.6529310  11.7579310  22.8819310  62.8279310  10.6049310
  23.5439310  63.0689310  11.1209310  12.2229310  60.6479310  17.7209310
  11.6229310  61.3809310  17.8619310  12.7699310  60.6309310  18.5069310
  12.2159310  60.7399310  17.8399310  13.5789310  59.5489310   5.7639310
  13.9789310  60.1339310   6.4079310  13.1149310  60.1339310   5.1649310
  13.5709310  59.6989310   5.7699310  23.6579310  61.3439310  13.6629310
  23.4949310  61.6529310  12.7719310  22.7969310  61.0799310  13.9859310
  23.5269310  61.3499310  13.5909310  23.8799310  55.5649310  17.8009310
  23.8769310  55.2749310  16.8889310  23.2079310  56.2459310  17.8379310
  23.7929310  55.6149310  17.6889310  23.5899310  65.0069310  16.1989310
  22.7719310  64.8509310  15.7279310  23.6379310  65.9589310  16.2879310
  23.4919310  65.1089310  16.1499310  27.9399310  59.7029310  17.4299310
  28.6529310  59.0709310  17.5249310  28.3799310  60.5399310  17.2839310
  28.0869310  59.7289310  17.4229310  13.9689310  61.4849310  10.9519310
  13.1899310  61.9909310  11.1829310  13.7069310  60.5719310  11.0749310
  13.8359310  61.4329310  10.9969310  17.0649310  65.6419310   8.0579310
  16.9779310  66.4219310   8.6069310  17.1369310  64.9179310   8.6809310
  17.0629310  65.6489310   8.2079310  12.6959310  56.7259310   3.2629310
  12.6389310  56.4719310   2.3419310  12.1479310  57.5079310   3.3309310
  12.6189310  56.7939310   3.1539310  17.1669310  60.7829310  15.2419310
  17.0759310  60.6629310  14.2969310  16.4429310  61.3609310  15.4799310
  17.0629310  60.8419310  15.1509310  18.2489310  54.2989310   6.6939310
  17.8439310  53.9679310   7.4959310  18.3559310  53.5249310   6.1419310
  18.2109310  54.1579310   6.7259310  18.7919310  60.3449310   4.5799310
  19.1649310  60.2799310   3.7009310  17.8869310  60.0489310   4.4789310
  18.7239310  60.2979310   4.4549310  18.4909310  67.5019310   3.0139310
  17.7589310  67.0129310   2.6379310  19.1509310  67.5149310   2.3219310
  18.4809310  67.4409310   2.8779310  20.9369310  57.2419310   6.9649310
  20.0849310  57.1039310   6.5529310  20.9869310  58.1889310   7.1009310
  20.8349310  57.3459310   6.9299310  15.8089310  57.9099310  16.1559310
  16.5999310  57.9429310  15.6189310  15.4489310  58.7959310  16.1079310
  15.8639310  58.0269310  16.0809310  26.9649310  56.1629310  17.6249310
  27.0259310  55.8159310  16.7349310  26.0249310  56.2109310  17.7989310
  26.8519310  56.1249310  17.5329310  21.6549310  55.4159310   5.0559310
  21.4299310  56.2009310   5.5549310  22.5539310  55.5679310   4.7639310
  21.7419310  55.5359310   5.0829310  27.0819310  55.1359310   9.9259310
  27.9529310  54.7429310   9.9829310  26.9829310  55.3669310   9.0029310
  27.1809310  55.1149310   9.8149310  23.9899310  55.4029310  15.0599310
  23.7299310  54.6269310  14.5629310  24.9459310  55.4079310  15.0119310
  24.0789310  55.3039310  14.9899310  27.1069310  59.0009310   5.1739310
  26.8859310  58.7509310   6.0719310  27.9229310  58.5349310   4.9909310
  27.1829310  58.9089310   5.2659310  20.9099310  57.5509310  10.3409310
  20.0589310  57.1199310  10.2539310  21.0089310  57.6979310  11.2819310
  20.8129310  57.5149310  10.4499310  19.5409310  54.5719310  17.4919310
  18.9879310  54.8829310  18.2079310  19.6019310  55.3179310  16.8949310
  19.4779310  54.7069310  17.5069310  29.7979310  59.0249310   3.0099310
  28.9749310  58.5379310   2.9619310  29.5459310  59.8889310   3.3379310
  29.6609310  59.0729310   3.0459310  26.8549310  66.3579310  17.0289310
  26.2149310  65.8249310  17.5009310  26.8169310  66.0349310  16.1279310
  26.7679310  66.2479310  16.9739310  14.8849310  57.7059310   9.9549310
  14.7909310  57.2389310   9.1249310  15.7079310  57.3829310  10.3199310
  14.9779310  57.6049310   9.8959310  29.5219310  64.1949310  14.8459310
  28.6309310  64.4109310  15.1239310  29.7989310  64.9479310  14.3239310
  29.4429310  64.3189310  14.8149310  28.5899310  66.2169310   5.2779310
  28.6119310  66.3329310   6.2279310  28.7629310  67.0899310   4.9269310
  28.6149310  66.3439310   5.3549310  17.0479310  56.9639310  11.2109310
  17.4999310  56.3849310  11.8249310  17.6109310  56.9789310  10.4379310
  17.1779310  56.8919310  11.1909310  13.6299310  60.0639310  15.4799310
  13.0639310  60.4249310  14.7979310  13.1339310  60.1799310  16.2899310
  13.4939310  60.1249310  15.4959310  26.9489310  65.2339310  14.6299310
  26.3389310  64.4979310  14.6859310  26.5169310  65.8579310  14.0469310
  26.8159310  65.2189310  14.5629310  16.0469310  65.8219310  13.0549310
  15.5859310  66.1659310  12.2899310  16.1279310  64.8839310  12.8829310
  15.9979310  65.7459310  12.9349310  14.2429310  63.4629310   5.2399310
  15.1989310  63.4949310   5.2669310  13.9719310  64.3799310   5.2779310
  14.3309310  63.5839310   5.2479310  19.0829310  58.9219310  18.1829310
  18.3179310  58.5249310  18.6009310  18.8289310  59.8329310  18.0349310
  18.9519310  58.9879310  18.2179310  15.6019310  56.7529310   3.2109310
  15.9099310  56.8179310   4.1149310  14.6839310  56.4949310   3.2899310
  15.5239310  56.7279310   3.3369310  24.9109310  61.0139310   5.5949310
  25.5309310  61.4579310   5.0159310  24.1009310  61.5179310   5.5099310
  24.8869310  61.1359310   5.5099310  25.8039310  67.0929310  12.6489310
  25.6309310  67.0159310  11.7109310  26.5869310  67.6399310  12.7039310
  25.8819310  67.1529310  12.5359310  20.6219310  63.4769310   6.9679310
  21.1359310  62.8769310   6.4279310  20.3479310  64.1669310   6.3639310
  20.6519310  63.4879310   6.8219310  26.6639310  56.7059310  14.5269310
  26.3769310  57.5319310  14.9179310  26.4409310  56.7899310  13.5999310
  26.5979310  56.8229310  14.4589310  30.6789310  58.0419310   7.0129310
  31.2609310  58.5269310   6.4269310  30.1129310  58.7119310   7.3959310
  30.6809310  58.1899310   6.9869310  25.0579310  64.8179310  18.3209310
  24.2469310  64.8559310  17.8139310  25.4219310  63.9549310  18.1259310
  25.0009310  64.7129310  18.2309310  18.3979310  56.8609310   8.8789310
  18.2199310  57.4509310   8.1469310  18.8829310  56.1339310   8.4889310
  18.4369310  56.8439310   8.7359310  12.0029310  63.4509310   7.4559310
  12.5999310  63.7069310   6.7519310  12.3059310  63.9459310   8.2179310
  12.1179310  63.5469310   7.4629310  14.6839310  66.9579310  11.2609310
  14.9429310  67.6509310  10.6529310  13.8119310  67.2169310  11.5599310
  14.6059310  67.0799310  11.2209310  28.3719310  64.5479310   8.2419310
  29.2249310  64.2069310   7.9719310  28.3939310  64.5189310   9.1979310
  28.4839310  64.4999310   8.3289310  21.3019310  61.4589310  16.1469310
  20.5479310  61.1289310  15.6579310  21.1009310  61.2609310  17.0609310
  21.1799310  61.3909310  16.2009310  24.8519310  60.7819310  18.2159310
  24.0679310  60.7429310  18.7639310  25.4889310  60.2309310  18.6699310
  24.8329310  60.7069310  18.3439310  30.4479310  54.5739310   7.7499310
  29.8519310  54.2239310   8.4119310  31.1659310  53.9419310   7.7149310
  30.4639310  54.4489310   7.8299310  26.5179310  65.2189310   3.4569310
  26.9139310  65.5599310   4.2589310  27.0089310  65.6379310   2.7499310
  26.6309310  65.3159310   3.4689310  26.2469310  59.3049310  15.4189310
  26.9399310  59.4989310  16.0509310  25.6109310  60.0109310  15.5369310
  26.2539310  59.4199310  15.5149310  18.8239310  37.3789310  70.3179310
  19.0519310  37.3509310  71.2469310  18.1949310  36.6669310  70.2049310
  18.7729310  37.2839310  70.4229310  16.2229310  51.5649310  70.5779310
  15.2689310  51.4969310  70.5459310  16.4119310  51.8719310  71.4639310
  16.1249310  51.5959310  70.6869310  20.9879310  49.0089310  63.7409310
  20.8139310  49.1699310  64.6689310  20.2229310  48.5229310  63.4349310
  20.8679310  48.9669310  63.8209310  16.7399310  35.6649310  69.8239310
  16.1799310  36.1129310  70.4579310  16.5939310  34.7339310  69.9909310
  16.6499310  35.6029310  69.9259310  20.9539310  39.1149310  69.6769310
  20.3509310  38.4739310  70.0519310  21.7429310  39.0459310  70.2149310
  20.9779310  39.0249310  69.7939310  14.4459310  50.1619310  64.0349310
  14.4839310  51.0549310  63.6909310  13.6469310  50.1409310  64.5609310
  14.3489310  50.2739310  64.0579310  19.1569310  51.9519310  60.7239310
  18.3579310  51.4249310  60.7339310  19.5009310  51.8489310  59.8369310
  19.0989310  51.8709310  60.6119310  23.3769310  38.9409310  70.9449310
  23.5549310  38.0589310  71.2709310  23.6959310  39.5209310  71.6369310
  23.4409310  38.9019310  71.0759310  23.0649310  46.9369310  63.1909310
  22.6389310  46.3299310  62.5869310  22.4019310  47.6039310  63.3689310
  22.9259310  46.9449310  63.1369310  28.8169310  37.5689310  62.4439310
  28.8849310  36.6219310  62.3199310  29.6859310  37.8339310  62.7449310
  28.9369310  37.4819310  62.4669310  29.9359310  41.8599310  64.2849310
  29.1569310  41.9699310  64.8299310  30.2799310  42.7459310  64.1759310
  29.8799310  41.9869310  64.3409310  21.0319310  37.9879310  58.4329310
  20.7659310  37.5249310  59.2279310  21.0479310  37.3109310  57.7569310
  20.9999310  37.8419310  58.4489310  21.2669310  45.1759310  71.7169310
  21.1389310  44.3109310  72.1059310  21.7099310  45.0009310  70.8859310
  21.3069310  45.0429310  71.6599310  29.8789310  45.7649310  60.4659310
  29.5129310  46.4059310  61.0759310  29.1139310  45.3429310  60.0739310
  29.7339310  45.7929310  60.4939310  12.3909310  39.5059310  70.2739310
  12.6679310  40.0749310  70.9919310  11.7889310  38.8829310  70.6809310
  12.3499310  39.4989310  70.4179310  13.2639310  45.8429310  72.8669310
  12.3429310  45.6229310  72.7269310  13.3439310  45.9499310  73.8139310
  13.1559310  45.8279310  72.9699310  24.8539310  49.5319310  64.0719310
  25.0299310  50.3819310  63.6689310  24.0949310  49.1949310  63.5979310
  24.7799310  49.5979310  63.9599310  24.6439310  52.8569310  65.3239310
  25.2299310  53.5939310  65.1489310  23.8619310  53.0429310  64.8049310
  24.6189310  52.9749310  65.2349310  16.9659310  40.1119310  63.8439310
  16.5589310  40.1109310  62.9769310  16.4799310  40.7749310  64.3349310
  16.8519310  40.1969310  63.7959310  15.0849310  36.5079310  71.8619310
  15.2919310  37.4059310  72.1189310  14.7289310  36.1069310  72.6549310
  15.0659310  36.5709310  71.9959310  16.3929310  37.2989310  62.5619310
  15.6349310  37.2859310  63.1469310  16.9249310  36.5549310  62.8429310
  16.3639310  37.2019310  62.6729310  23.4329310  40.9969310  72.8609310
  24.0189310  41.3099310  73.5499310  22.7069310  41.6219310  72.8609310
  23.4149310  41.1169310  72.9489310  21.0529310  41.4979310  62.3929310
  20.2279310  41.4799310  61.9079310  20.8019310  41.3119310  63.2979310
  20.9149310  41.4719310  62.4469310  18.1669310  51.1629310  67.0099310
  17.9059310  50.7879310  67.8509310  18.8979310  50.6179310  66.7209310
  18.2269310  51.0449310  67.0799310  16.4049310  49.3559310  65.7249310
  15.6809310  49.6589310  65.1769310  16.9989310  50.1059310  65.7729310
  16.3889310  49.4909310  65.6609310  20.3049310  51.5819310  58.3559310
  20.7639310  50.7599310  58.5279310  21.0029310  52.2219310  58.2169310
  20.4529310  51.5589310  58.3599310  19.0279310  42.0729310  67.3379310
  19.9089310  42.3649310  67.5699310  19.1139310  41.7389310  66.4449310
  19.1519310  42.0679310  67.2529310  23.3249310  37.8919310  65.5219310
  22.3729310  37.8289310  65.5929310  23.6529310  37.1639310  66.0499310
  23.2449310  37.7909310  65.5989310  28.4539310  45.8999310  67.6439310
  28.8939310  46.4069310  68.3269310  27.7819310  45.4029310  68.1099310
  28.4249310  45.9009310  67.7909310  29.6689310  47.6679310  69.8719310
  28.9549310  48.2729310  69.6729310  30.3849310  48.2309310  70.1689310
  29.6699310  47.8169310  69.8849310  28.4459310  40.0649310  66.7129310
  29.3579310  40.0759310  67.0059310  28.4459310  39.4799310  65.9549310
  28.5629310  39.9909310  66.6539310  26.2909310  44.4019310  68.5639310
  25.4159310  44.1449310  68.2739310  26.6429310  43.6189310  68.9879310
  26.2239310  44.2689310  68.5809310  15.9999310  51.3179310  73.7219310
  15.7479310  52.2219310  73.9129310  16.9049310  51.2529310  74.0249310
  16.0839310  51.4259310  73.7849310  18.0329310  36.3909310  57.3729310
  18.3749310  36.3999310  58.2669310  17.5479310  37.2129310  57.2949310
  18.0149310  36.4979310  57.4769310  13.2019310  36.3069310  67.2769310
  14.0359310  36.7609310  67.1529310  12.6139310  36.7059310  66.6369310
  13.2339310  36.4159310  67.1799310  20.6359310  40.9019310  65.0269310
  20.7219310  40.1179310  65.5699310  21.0759310  41.5889310  65.5269310
  20.7029310  40.8899310  65.1599310  29.2979310  38.5199310  74.3669310
  28.3989310  38.1919310  74.3619310  29.6229310  38.3429310  73.4849310
  29.2239310  38.4549310  74.2539310  27.7319310  35.0409310  59.2409310
  27.8599310  35.9559310  58.9889310  26.7829310  34.9459310  59.3259310
  27.6269310  35.1459310  59.2199310  13.7109310  53.1239310  61.5459310
  12.9299310  52.9929310  61.0079310  13.6809310  54.0489310  61.7899310
  13.6069310  53.2259310  61.5079310  23.7619310  48.9259310  73.4969310
  24.3439310  48.7619310  74.2379310  23.1689310  49.6119310  73.8049310
  23.7599310  48.9929310  73.6309310  20.0639310  49.3899310  66.2359310
  19.5839310  48.5819310  66.4129310  20.7939310  49.3759310  66.8549310
  20.0959310  49.2849310  66.3379310  33.4759310  42.3069310  64.6199310
  33.4899310  41.9939310  65.5249310  33.4269310  43.2599310  64.6969310
  33.4719310  42.3889310  64.7459310  19.6069310  41.8909310  70.6229310
  18.7619310  41.5709310  70.9399310  20.0799310  41.0999310  70.3639310
  19.5589310  41.7489310  70.6309310  15.4419310  51.6489310  60.0799310
  14.8599310  52.1469310  60.6529310  15.6709310  52.2599310  59.3799310
  15.3969310  51.7909310  60.0639310  29.3349310  37.7579310  71.7979310
  28.4689310  37.5939310  71.4269310  29.9169310  37.1659310  71.3199310
  29.2989310  37.6609310  71.6889310  18.7959310  46.1169310  71.9849310
  19.6759310  45.7439310  71.9329310  18.2579310  45.5359310  71.4479310
  18.8399310  45.9949310  71.9099310  27.7849310  49.8279310  70.3419310
  27.4339310  49.7249310  71.2269310  27.9329310  50.7699310  70.2519310
  27.7589310  49.9349310  70.4439310  29.9219310  51.5949310  72.2209310
  30.1199310  51.1999310  73.0709310  29.2509310  52.2499310  72.4119310
  29.8609310  51.6279310  72.3539310  27.1659310  38.9249310  64.0919310
  27.8619310  38.5389310  63.5589310  26.5559310  38.2029310  64.2469310
  27.1769310  38.7829310  64.0429310  25.2399310  44.3739310  71.6339310
  24.6829310  43.9799310  70.9619310  24.6639310  44.9839310  72.0939310
  25.0949310  44.4019310  71.6069310  16.0789310  43.9519310  69.2599310
  15.7019310  43.8249310  70.1299310  15.5159310  43.4409310  68.6779310
  15.9589310  43.8709310  69.2969310  25.0859310  45.4619310  64.7149310
  25.6309310  45.9629310  65.3219310  24.3919310  46.0689310  64.4579310
  25.0669310  45.6029310  64.7599310  13.0689310  47.0279310  65.5359310
  13.4629310  46.9579310  64.6659310  13.6809310  46.5729310  66.1129310
  13.1979310  46.9609310  65.4979310  23.7259310  52.5509310  70.5049310
  23.1769310  52.4819310  69.7249310  24.0899310  51.6739310  70.6209310
  23.7029310  52.4299310  70.4199310  17.2049310  40.8729310  69.3019310
  16.6149310  40.1339310  69.1499310  17.8169310  40.8449310  68.5669310
  17.2079310  40.7749310  69.1879310  18.5899310  47.0649310  67.3339310
  18.5499310  46.1099310  67.2969310  18.1349310  47.2929310  68.1439310
  18.5269310  46.9719310  67.4329310  26.5549310  43.7179310  74.0159310
  25.8639310  43.0779310  74.1839310  26.3469310  44.0739310  73.1529310
  26.4399310  43.6809310  73.9269310  12.1729310  42.8199310  61.1529310
  12.8379310  43.4199310  61.4909310  11.3409310  43.2539310  61.3419310
  12.1519310  42.9519310  61.2209310  14.5059310  47.2649310  63.3549310
  15.1849310  46.9849310  63.9689310  14.6039310  48.2149310  63.3059310
  14.6049310  47.3509310  63.4279310  14.1759310  37.4559310  64.1199310
  13.9379310  36.6369310  63.6859310  13.4149310  38.0239310  63.9929310
  14.0479310  37.4239310  64.0479310  18.7469310  36.2709310  60.1239310
  18.9919310  35.3959310  60.4249310  18.5319310  36.7479310  60.9249310
  18.7509310  36.2199310  60.2649310  23.9789310  38.0199310  62.6619310
  23.6849310  38.7349310  62.0979310  23.7079310  38.2809310  63.5419310
  23.9069310  38.1449310  62.7019310  22.4329310  49.6759310  67.7439310
  22.3689310  49.1559310  68.5459310  22.9779310  50.4249310  67.9869310
  22.4939310  49.7049310  67.8779310  27.9319310  48.5719310  64.3629310
  27.0169310  48.5819310  64.0799310  28.0539310  47.7039310  64.7479310
  27.8299310  48.4619310  64.3759310  14.2449310  52.7639310  65.5229310
  13.7029310  53.1869310  66.1899310  15.1439310  52.9609310  65.7849310
  14.2899310  52.8439310  65.6419310  19.8489310  46.5259310  61.4489310
  19.3259310  47.2289310  61.8349310  19.8609310  46.7219310  60.5129310
  19.7839310  46.6409310  61.3789310  15.7859310  46.8289310  72.4429310
  15.7479310  47.1459310  71.5409310  14.9139310  46.4699310  72.6079310
  15.6689310  46.8229310  72.3489310  19.6939310  48.5689310  71.0179310
  18.9109310  48.9749310  70.6489310  19.4059310  47.6979310  71.2909310
  19.5569310  48.5089310  71.0059310  13.4319310  50.5809310  67.7609310
  14.0869310  50.9419310  67.1639310  12.7539310  50.2259310  67.1859310
  13.4289310  50.5819310  67.6109310  28.7439310  32.4729310  67.0119310
  28.8899310  32.8779310  67.8669310  27.7989310  32.5409310  66.8729310
  28.6419310  32.5329310  67.1039310  18.7199310  44.5259310  69.4969310
  19.0449310  43.7229310  69.9039310  17.8509310  44.2939310  69.1709310
  18.6499310  44.3939310  69.5069310  24.8319310  42.6079310  64.7259310
  25.3299310  42.4009310  63.9349310  25.0159310  43.5329310  64.8899310
  24.9189310  42.6999310  64.6459310  13.4209310  46.3909310  58.9249310
  14.1879310  46.0679310  59.3999310  12.6789310  46.1519310  59.4799310
  13.4239310  46.3189310  59.0569310  29.5199310  53.3799310  66.7939310
  29.3729310  52.4369310  66.8749310  30.1739310  53.5779310  67.4649310
  29.5849310  53.2839310  66.8899310  30.8529310  49.6579310  65.5799310
  30.0089310  50.0709310  65.7639310  30.7209310  48.7359310  65.7979310
  30.7279310  49.5929310  65.6309310  12.7589310  40.1469310  67.6209310
  13.5569310  39.7969310  67.2259310  12.7389310  39.7669310  68.4989310
  12.8579310  40.0529310  67.6829310  22.1529310  43.2039310  65.3489310
  21.7459310  43.9639310  64.9329310  23.0149310  43.1389310  64.9389310
  22.2109310  43.2929310  65.2429310  26.6899310  44.4429310  62.8309310
  27.3639310  44.8549310  63.3709310  25.8799310  44.8889310  63.0769310
  26.6729310  44.5529310  62.9309310  14.8439310  44.9339310  66.3339310
  15.8009310  44.9179310  66.3149310  14.5989310  44.1199310  66.7739310
  14.9349310  44.8279310  66.3879310  25.1469310  38.9439310  68.8729310
  24.6929310  39.3859310  68.1549310  24.6049310  39.1189310  69.6419310
  25.0199310  39.0229310  68.8789310  30.3119310  43.8719310  67.8169310
  29.9229310  43.3979310  68.5529310  29.7769310  44.6609310  67.7309310
  30.1939310  43.9119310  67.8999310  23.6859310  40.4199310  66.6829310
  24.3119310  40.8699310  66.1159310  23.5439310  39.5729310  66.2589310
  23.7479310  40.3689310  66.5559310  22.2209310  48.2969310  70.1819310
  22.6139310  49.1179310  70.4779310  21.3079310  48.3519310  70.4639310
  22.1549310  48.4089310  70.2559310  23.7099310  37.1649310  59.4389310
  22.9509310  37.4129310  58.9109310  24.2649310  37.9449310  59.4399310
  23.6839310  37.2969310  59.3719310  25.8319310  36.3489310  63.9519310
  25.1699310  36.7549310  63.3919310  26.5269310  36.0859310  63.3489310
  25.8359310  36.3679310  63.8029310  27.4449310  41.5809310  69.3309310
  27.1799310  40.9289310  69.9809310  27.6639310  41.0679310  68.5529310
  27.4389310  41.4319310  69.3149310  18.1909310  43.3739310  63.5559310
  18.3789310  42.6219310  62.9939310  19.0469310  43.7649310  63.7259310
  18.3239310  43.3279310  63.5059310  19.8469310  38.2339310  72.7959310
  20.7689310  38.3099310  73.0399310  19.3949310  38.8509310  73.3709310
  19.9069310  38.3219310  72.8999310  16.8379310  35.2439310  65.7149310
  17.0089310  36.1649310  65.9139310  17.4039310  34.7599310  66.3159310
  16.9319310  35.2999310  65.8169310  17.6919310  44.3709310  66.1079310
  17.9489310  43.9529310  65.2859310  17.7759310  43.6789310  66.7639310
  17.7359310  44.2289310  66.0869310  25.0039310  48.8259310  66.5669310
  25.1019310  49.0729310  65.6469310  24.1499310  49.1759310  66.8189310
  24.9069310  48.9019310  66.4819310  22.3939310  53.2399310  63.9059310
  22.2089310  52.4129310  63.4599310  22.0819310  53.9129310  63.3009310
  22.3299310  53.2199310  63.7709310  26.0919310  51.2519310  67.1059310
  25.5479310  51.8519310  66.5949310  25.7009310  50.3909310  66.9599310
  25.9729310  51.2189310  67.0219310  29.8669310  42.6609310  70.7289310
  28.9709310  42.3359310  70.6419310  29.7669310  43.5559310  71.0539310
  29.7389310  42.7339310  70.7599310  20.1839310  53.6199310  66.0789310
  20.1499310  52.9329310  66.7439310  20.6599310  53.2249310  65.3489310
  20.2399310  53.4819310  66.0709310  21.6949310  41.7289310  67.8829310
  21.2459310  40.9749310  68.2649310  22.4169310  41.3489310  67.3829310
  21.7299310  41.5839310  67.8679310  23.2299310  45.8529310  69.5949310
  22.9539310  46.6769310  69.9969310  24.1809310  45.8399310  69.7039310
  23.3169310  45.9569310  69.6599310  18.7179310  38.4659310  61.8659310
  18.5699310  39.4089310  61.7879310  17.9259310  38.1339310  62.2899310
  18.5979310  38.5439310  61.9099310  22.5859310  53.0759310  67.8439310
  23.3759310  53.6139310  67.7899310  21.9859310  53.4679310  67.2099310
  22.6099310  53.1949310  67.7559310  14.6159310  43.7009310  71.7319310
  13.9369310  44.3399310  71.9519310  14.2069310  42.8519310  71.8949310
  14.4759310  43.6739310  71.7809310  25.5759310  51.7059310  62.6959310
  25.2079310  52.2869310  63.3609310  26.4669310  52.0289310  62.5619310
  25.6429310  51.8219310  62.7639310  12.7639310  36.6099310  70.3139310
  13.6259310  36.5709310  70.7279310  12.9499310  36.7599310  69.3869310
  12.8979310  36.6239310  70.2479310  23.6809310  44.1429310  67.6809310
  23.4129310  44.7859310  68.3379310  22.8819310  43.9609310  67.1849310
  23.5439310  44.2019310  67.7009310  13.5789310  40.6819310  62.3439310
  13.9789310  41.2669310  62.9879310  13.1149310  41.2669310  61.7449310
  13.5709310  40.8319310  62.3499310  23.6579310  42.4769310  70.2429310
  23.4949310  42.7859310  69.3519310  22.7969310  42.2129310  70.5659310
  23.5269310  42.4829310  70.1709310  23.8799310  36.6979310  74.3809310
  23.8769310  36.4079310  73.4689310  23.2079310  37.3789310  74.4179310
  23.7929310  36.7479310  74.2689310  15.5389310  35.3609310  58.3889310
  15.5399310  36.1029310  58.9929310  16.0429310  35.6649310  57.6349310
  15.6039310  35.4949310  58.3699310  16.4549310  47.3969310  58.6729310
  16.5409310  47.3459310  57.7209310  15.9019310  48.1649310  58.8219310
  16.3949310  47.4889310  58.5699310  23.5899310  46.1399310  72.7789310
  22.7719310  45.9839310  72.3079310  23.6379310  47.0919310  72.8679310
  23.4919310  46.2419310  72.7299310  27.9399310  40.8359310  74.0099310
  28.6529310  40.2039310  74.1049310  28.3799310  41.6729310  73.8639310
  28.0869310  40.8619310  74.0029310  13.9689310  42.6179310  67.5319310
  13.1899310  43.1239310  67.7629310  13.7069310  41.7049310  67.6549310
  13.8359310  42.5659310  67.5769310  29.4129310  52.1129310  69.5789310
  29.6949310  52.0169310  70.4889310  28.6319310  52.6639310  69.6279310
  29.3489310  52.1709310  69.7019310  17.0649310  46.7749310  64.6379310
  16.9779310  47.5549310  65.1869310  17.1369310  46.0509310  65.2609310
  17.0629310  46.7819310  64.7879310  12.6959310  37.8589310  59.8429310
  12.6389310  37.6049310  58.9219310  12.1479310  38.6409310  59.9109310
  12.6189310  37.9269310  59.7339310  17.1669310  41.9159310  71.8219310
  17.0759310  41.7959310  70.8769310  16.4429310  42.4939310  72.0599310
  17.0629310  41.9749310  71.7309310  18.2489310  35.4319310  63.2739310
  17.8439310  35.1009310  64.0759310  18.3559310  34.6579310  62.7219310
  18.2109310  35.2909310  63.3059310  29.3339310  50.8909310  63.0139310
  29.4039310  50.2619310  63.7309310  29.3999310  50.3589310  62.2209310
  29.3509310  50.7429310  63.0039310  18.4909310  48.6349310  59.5939310
  17.7589310  48.1459310  59.2179310  19.1509310  48.6479310  58.9019310
  18.4809310  48.5739310  59.4579310  20.9369310  38.3749310  63.5449310
  20.0849310  38.2369310  63.1329310  20.9869310  39.3219310  63.6809310
  20.8349310  38.4789310  63.5099310  13.4369310  51.9799310  70.1649310
  13.1439310  51.7069310  69.2949310  13.1289310  52.8819310  70.2489310
  13.3599310  52.0599310  70.0639310  15.8089310  39.0429310  72.7359310
  16.5999310  39.0759310  72.1989310  15.4489310  39.9289310  72.6879310
  15.8639310  39.1599310  72.6609310  26.9649310  37.2959310  74.2049310
  27.0259310  36.9489310  73.3149310  26.0249310  37.3439310  74.3789310
  26.8519310  37.2579310  74.1129310  17.3519310  49.3439310  69.5629310
  16.7819310  50.0309310  69.9099310  16.8999310  48.5279310  69.7769310
  17.2209310  49.3279310  69.6349310  23.9439310  50.9249310  60.6539310
  23.2589310  50.8529310  61.3189310  24.7419310  51.1029310  61.1509310
  23.9579310  50.9379310  60.8029310  21.6549310  36.5489310  61.6359310
  21.4299310  37.3339310  62.1349310  22.5539310  36.7009310  61.3439310
  21.7419310  36.6689310  61.6629310  27.0819310  36.2689310  66.5059310
  27.9529310  35.8759310  66.5629310  26.9829310  36.4999310  65.5829310
  27.1809310  36.2479310  66.3949310  23.9899310  36.5359310  71.6399310
  23.7299310  35.7599310  71.1429310  24.9459310  36.5409310  71.5919310
  24.0789310  36.4369310  71.5699310  20.9099310  38.6839310  66.9209310
  20.0589310  38.2529310  66.8339310  21.0089310  38.8309310  67.8619310
  20.8129310  38.6479310  67.0299310  18.3319310  48.2179310  62.7569310
  17.6959310  47.7629310  63.3079310  17.8439310  48.9519310  62.3839310
  18.1889310  48.2539310  62.7799310  24.2099310  49.8889310  70.9619310
  24.0069310  49.5789310  71.8439310  24.7239310  49.1809310  70.5719310
  24.2499310  49.7579310  71.0249310  26.8549310  47.4909310  73.6089310
  26.2149310  46.9579310  74.0809310  26.8169310  47.1679310  72.7079310
  26.7679310  47.3809310  73.5539310  20.6219310  49.8589310  73.7439310
  20.2349310  49.4939310  72.9479310  19.9739310  50.4879310  74.0589310
  20.4889310  49.8919310  73.6829310  12.9819310  49.2129310  71.1129310
  12.5999310  50.0559310  71.3569310  13.8059310  49.4389310  70.6819310
  13.0379310  49.3499310  71.0889310  14.8849310  38.8389310  66.5349310
  14.7909310  38.3719310  65.7049310  15.7079310  38.5159310  66.8999310
  14.9779310  38.7379310  66.4759310  29.5219310  45.3279310  71.4259310
  28.6309310  45.5439310  71.7039310  29.7989310  46.0809310  70.9039310
  29.4429310  45.4519310  71.3949310  28.5899310  47.3499310  61.8579310
  28.6119310  47.4659310  62.8079310  28.7629310  48.2229310  61.5069310
  28.6149310  47.4769310  61.9349310  17.0479310  38.0969310  67.7909310
  17.4999310  37.5179310  68.4049310  17.6109310  38.1119310  67.0179310
  17.1779310  38.0249310  67.7709310  13.6299310  41.1969310  72.0599310
  13.0639310  41.5579310  71.3779310  13.1339310  41.3129310  72.8699310
  13.4939310  41.2579310  72.0759310  24.8759310  54.8289310  67.9769310
  25.6509310  54.6729310  67.4379310  24.8449310  55.7799310  68.0829310
  24.9709310  54.9309310  67.9219310  21.4459310  51.2409310  62.2059310
  21.2079310  50.4279310  62.6499310  20.6409310  51.5189310  61.7689310
  21.3129310  51.1729310  62.2069310  26.6389310  50.6609310  73.5129310
  26.9089310  49.7569310  73.6729310  25.6869310  50.6479310  73.6139310
  26.5519310  50.5439310  73.5469310  26.9489310  46.3669310  71.2099310
  26.3389310  45.6309310  71.2659310  26.5169310  46.9909310  70.6269310
  26.8159310  46.3519310  71.1429310  16.0469310  46.9549310  69.6349310
  15.5859310  47.2989310  68.8699310  16.1279310  46.0169310  69.4629310
  15.9979310  46.8789310  69.5149310  14.2429310  44.5959310  61.8199310
  15.1989310  44.6279310  61.8469310  13.9719310  45.5129310  61.8579310
  14.3309310  44.7169310  61.8279310  15.6019310  37.8859310  59.7909310
  15.9099310  37.9509310  60.6949310  14.6839310  37.6279310  59.8699310
  15.5239310  37.8609310  59.9169310  11.5309310  48.1989310  58.1359310
  12.1589310  47.6759310  58.6349310  12.0249310  48.5049310  57.3749310
  11.6749310  48.1709310  58.1029310  17.2029310  50.2829310  61.4069310
  16.5029310  50.6809310  60.8899310  17.6349310  49.6799310  60.8009310
  17.1689310  50.2569310  61.2629310  25.8039310  48.2259310  69.2289310
  25.6309310  48.1489310  68.2909310  26.5869310  48.7729310  69.2839310
  25.8819310  48.2859310  69.1159310  20.6219310  44.6099310  63.5479310
  21.1359310  44.0099310  63.0079310  20.3479310  45.2999310  62.9439310
  20.6519310  44.6209310  63.4019310  27.6499310  53.1769310  72.8389310
  28.0589310  53.3489310  73.6869310  27.3809310  52.2599310  72.8839310
  27.6679310  53.0819310  72.9529310  26.6639310  37.8389310  71.1069310
  26.3769310  38.6649310  71.4979310  26.4409310  37.9229310  70.1799310
  26.5979310  37.9559310  71.0389310  13.1089310  51.9649310  57.5939310
  13.6659310  51.2059310  57.7659310  13.6769310  52.7189310  57.7499310
  13.2529310  51.9639310  57.6359310  30.6789310  39.1749310  63.5929310
  31.2609310  39.6599310  63.0069310  30.1129310  39.8449310  63.9759310
  30.6809310  39.3229310  63.5669310  18.3979310  37.9939310  65.4589310
  18.2199310  38.5839310  64.7269310  18.8829310  37.2669310  65.0689310
  18.4369310  37.9769310  65.3159310  12.0029310  44.5839310  64.0359310
  12.5999310  44.8399310  63.3319310  12.3059310  45.0789310  64.7979310
  12.1179310  44.6799310  64.0429310  14.6839310  48.0909310  67.8409310
  14.9429310  48.7839310  67.2329310  13.8119310  48.3499310  68.1399310
  14.6059310  48.2129310  67.8009310  28.3719310  45.6809310  64.8219310
  29.2249310  45.3399310  64.5519310  28.3939310  45.6519310  65.7779310
  28.4839310  45.6329310  64.9089310  21.3019310  42.5919310  72.7269310
  20.5479310  42.2619310  72.2379310  21.1009310  42.3939310  73.6409310
  21.1799310  42.5239310  72.7809310  30.4479310  35.7069310  64.3299310
  29.8519310  35.3569310  64.9919310  31.1659310  35.0749310  64.2949310
  30.4639310  35.5819310  64.4099310  26.2469310  40.4379310  71.9989310
  26.9399310  40.6319310  72.6309310  25.6109310  41.1439310  72.1169310
  26.2539310  40.5529310  72.0949310  26.7119310  52.7079310  69.4739310
  26.2389310  53.5409310  69.4669310  26.1809310  52.1269310  68.9299310
  26.5829310  52.7399310  69.4039310  21.4919310  35.5519310  57.0949310
  22.3839310  35.3229310  56.8309310  20.9699310  35.4309310  56.3019310
  21.5399310  35.5079310  56.9599310  13.2639310  45.8429310  54.0069310
  12.3429310  45.6229310  53.8669310  13.3439310  45.9499310  54.9539310
  13.1559310  45.8279310  54.1099310  12.9539310  39.5099310  57.0549310
  12.7559310  39.5909310  56.1229310  12.1599310  39.8129310  57.4959310
  12.8269310  39.5589310  56.9919310  20.3049310  51.5819310  39.4959310
  20.7639310  50.7599310  39.6679310  21.0029310  52.2219310  39.3569310
  20.4529310  51.5589310  39.4999310  12.9219310  48.5359310  55.8119310
  12.1599310  49.1039310  55.6949310  13.1269310  48.2259310  54.9299310
  12.8499310  48.5689310  55.6839310  14.9929310  49.8309310  57.1489310
  15.4759310  50.3919310  56.5419310  14.5499310  49.1949310  56.5879310
  14.9979310  49.8219310  56.9999310  15.9999310  51.3179310  54.8619310
  15.7479310  52.2219310  55.0529310  16.9049310  51.2529310  55.1649310
  16.0839310  51.4259310  54.9249310  14.3009310  35.4399310  55.4289310
  13.4679310  35.0129310  55.6299310  14.2679310  36.2669310  55.9089310
  14.1899310  35.4909310  55.5159310  13.7109310  53.1239310  42.6859310
  12.9299310  52.9929310  42.1479310  13.6809310  54.0489310  42.9299310
  13.6069310  53.2259310  42.6479310  16.5339310  47.0769310  56.0969310
  17.3449310  46.5889310  55.9549310  16.2649310  47.3539310  55.2209310
  16.6029310  47.0499310  55.9659310  18.7959310  46.1169310  53.1249310
  19.6759310  45.7439310  53.0729310  18.2579310  45.5359310  52.5879310
  18.8399310  45.9949310  53.0499310  16.2269310  38.4249310  56.4899310
  16.0739310  38.7049310  55.5879310  15.9899310  39.1849310  57.0209310
  16.1769310  38.5579310  56.4429310  12.1729310  42.8199310  42.2929310
  12.8379310  43.4199310  42.6309310  11.3409310  43.2539310  42.4819310
  12.1519310  42.9519310  42.3609310  19.9199310  46.0009310  39.5819310
  19.5369310  45.6919310  38.7609310  20.1589310  46.9119310  39.4069310
  19.9019310  46.0779310  39.4549310  15.7859310  46.8289310  53.5829310
  15.7479310  47.1459310  52.6809310  14.9139310  46.4699310  53.7479310
  15.6689310  46.8229310  53.4889310  13.4319310  50.5809310  48.9009310
  14.0869310  50.9419310  48.3039310  12.7539310  50.2259310  48.3259310
  13.4289310  50.5819310  48.7509310  14.3359310  45.4599310  56.6059310
  15.1389310  45.9699310  56.4959310  13.8859310  45.8779310  57.3399310
  14.3809310  45.5789310  56.6859310  13.4209310  46.3909310  40.0649310
  14.1879310  46.0679310  40.5399310  12.6789310  46.1519310  40.6199310
  13.4239310  46.3189310  40.1969310  19.8469310  38.2339310  53.9359310
  20.7689310  38.3099310  54.1799310  19.3949310  38.8509310  54.5109310
  19.9069310  38.3219310  54.0399310  14.6159310  43.7009310  52.8719310
  13.9369310  44.3399310  53.0919310  14.2069310  42.8519310  53.0349310
  14.4759310  43.6739310  52.9209310  12.7639310  36.6099310  51.4539310
  13.6259310  36.5709310  51.8679310  12.9499310  36.7599310  50.5269310
  12.8979310  36.6239310  51.3879310  12.2229310  41.7809310  55.4409310
  11.6229310  42.5139310  55.5819310  12.7699310  41.7639310  56.2269310
  12.2159310  41.8729310  55.5599310  13.4369310  51.9799310  51.3049310
  13.1439310  51.7069310  50.4349310  13.1289310  52.8819310  51.3889310
  13.3599310  52.0599310  51.2039310  19.5409310  35.7049310  55.2119310
  18.9879310  36.0159310  55.9279310  19.6019310  36.4509310  54.6149310
  19.4779310  35.8399310  55.2269310  12.9819310  49.2129310  52.2529310
  12.5999310  50.0559310  52.4969310  13.8059310  49.4389310  51.8219310
  13.0379310  49.3499310  52.2289310  13.6299310  41.1969310  53.1999310
  13.0639310  41.5579310  52.5179310  13.1339310  41.3129310  54.0099310
  13.4939310  41.2579310  53.2159310  11.5309310  48.1989310  39.2759310
  12.1589310  47.6759310  39.7749310  12.0249310  48.5049310  38.5149310
  11.6749310  48.1709310  39.2429310  13.1089310  51.9649310  38.7339310
  13.6659310  51.2059310  38.9059310  13.6769310  52.7189310  38.8899310
  13.2529310  51.9639310  38.7759310  12.0029310  44.5839310  45.1759310
  12.5999310  44.8399310  44.4719310  12.3059310  45.0789310  45.9379310
  12.1179310  44.6799310  45.1829310  18.8239310  37.3789310  32.5979310
  19.0519310  37.3509310  33.5269310  18.1949310  36.6669310  32.4849310
  18.7729310  37.2839310  32.7029310  16.2229310  51.5649310  32.8579310
  15.2689310  51.4969310  32.8259310  16.4119310  51.8719310  33.7439310
  16.1249310  51.5959310  32.9669310  20.9879310  49.0089310  26.0209310
  20.8139310  49.1699310  26.9489310  20.2229310  48.5229310  25.7149310
  20.8679310  48.9669310  26.1009310  16.7399310  35.6649310  32.1039310
  16.1799310  36.1129310  32.7379310  16.5939310  34.7339310  32.2709310
  16.6499310  35.6029310  32.2059310  17.5589310  43.9059310  21.3519310
  17.4049310  44.3629310  22.1789310  18.2709310  43.2959310  21.5439310
  17.6299310  43.8859310  21.4819310  20.9539310  39.1149310  31.9569310
  20.3509310  38.4739310  32.3319310  21.7429310  39.0459310  32.4949310
  20.9779310  39.0249310  32.0739310  27.7199310  50.0649310  19.5379310
  26.8579310  50.3929310  19.2819310  27.6239310  49.1129310  19.5369310
  27.5969310  49.9849310  19.5049310  14.4459310  50.1619310  26.3149310
  14.4839310  51.0549310  25.9709310  13.6469310  50.1409310  26.8409310
  14.3489310  50.2739310  26.3379310  19.1569310  51.9519310  23.0039310
  18.3579310  51.4249310  23.0139310  19.5009310  51.8489310  22.1169310
  19.0989310  51.8709310  22.8919310  23.3769310  38.9409310  33.2249310
  23.5549310  38.0589310  33.5509310  23.6959310  39.5209310  33.9169310
  23.4409310  38.9019310  33.3559310  23.0649310  46.9369310  25.4709310
  22.6389310  46.3299310  24.8669310  22.4019310  47.6039310  25.6489310
  22.9259310  46.9449310  25.4169310  28.8169310  37.5689310  24.7239310
  28.8849310  36.6219310  24.5999310  29.6859310  37.8339310  25.0249310
  28.9369310  37.4819310  24.7469310  29.9359310  41.8599310  26.5649310
  29.1569310  41.9699310  27.1099310  30.2799310  42.7459310  26.4559310
  29.8799310  41.9869310  26.6209310  21.0319310  37.9879310  20.7129310
  20.7659310  37.5249310  21.5079310  21.0479310  37.3109310  20.0369310
  20.9999310  37.8419310  20.7289310  21.2669310  45.1759310  33.9969310
  21.1389310  44.3109310  34.3859310  21.7099310  45.0009310  33.1659310
  21.3069310  45.0429310  33.9399310  24.1429310  46.1279310  21.0159310
  24.9129310  46.1489310  21.5829310  24.4619310  45.7609310  20.1919310
  24.2819310  46.0839310  20.9829310  29.8789310  45.7649310  22.7459310
  29.5129310  46.4059310  23.3559310  29.1139310  45.3429310  22.3539310
  29.7339310  45.7929310  22.7739310  12.3909310  39.5059310  32.5539310
  12.6679310  40.0749310  33.2719310  11.7889310  38.8829310  32.9609310
  12.3499310  39.4989310  32.6979310  27.8609310  47.3649310  19.7629310
  27.9029310  47.2309310  18.8159310  28.7469310  47.6319310  20.0059310
  27.9799310  47.3819310  19.6729310  13.2639310  45.8429310  35.1469310
  12.3429310  45.6229310  35.0069310  13.3439310  45.9499310  36.0939310
  13.1559310  45.8279310  35.2499310  28.2039310  37.7949310  21.8509310
  28.3359310  37.6509310  22.7879310  27.3359310  38.1939310  21.7909310
  28.1099310  37.8269310  21.9639310  24.8539310  49.5319310  26.3519310
  25.0299310  50.3819310  25.9489310  24.0949310  49.1949310  25.8779310
  24.7799310  49.5979310  26.2399310  24.6439310  52.8569310  27.6039310
  25.2299310  53.5939310  27.4289310  23.8619310  53.0429310  27.0849310
  24.6189310  52.9749310  27.5149310  16.9659310  40.1119310  26.1239310
  16.5589310  40.1109310  25.2569310  16.4799310  40.7749310  26.6149310
  16.8519310  40.1969310  26.0759310  15.0849310  36.5079310  34.1419310
  15.2919310  37.4059310  34.3989310  14.7289310  36.1069310  34.9349310
  15.0659310  36.5709310  34.2759310  16.3929310  37.2989310  24.8419310
  15.6349310  37.2859310  25.4269310  16.9249310  36.5549310  25.1229310
  16.3639310  37.2019310  24.9529310  21.0529310  41.4979310  24.6729310
  20.2279310  41.4799310  24.1879310  20.8019310  41.3119310  25.5779310
  20.9149310  41.4719310  24.7269310  18.1669310  51.1629310  29.2899310
  17.9059310  50.7879310  30.1309310  18.8979310  50.6179310  29.0009310
  18.2269310  51.0449310  29.3599310  16.4049310  49.3559310  28.0049310
  15.6809310  49.6589310  27.4569310  16.9989310  50.1059310  28.0529310
  16.3889310  49.4909310  27.9409310  15.8779310  43.1199310  19.3429310
  15.2749310  43.8569310  19.2469310  16.5069310  43.4099310  20.0039310
  15.8809310  43.2509310  19.4149310  20.3049310  51.5819310  20.6359310
  20.7639310  50.7599310  20.8079310  21.0029310  52.2219310  20.4969310
  20.4529310  51.5589310  20.6399310  19.0279310  42.0729310  29.6179310
  19.9089310  42.3649310  29.8499310  19.1139310  41.7389310  28.7249310
  19.1519310  42.0679310  29.5329310  12.9219310  48.5359310  36.9519310
  12.1599310  49.1039310  36.8349310  13.1269310  48.2259310  36.0699310
  12.8499310  48.5689310  36.8239310  14.9929310  49.8309310  38.2889310
  15.4759310  50.3919310  37.6819310  14.5499310  49.1949310  37.7279310
  14.9979310  49.8219310  38.1399310  18.6189310  51.5669310  37.0869310
  19.1929310  51.4799310  37.8479310  18.5769310  52.5089310  36.9249310
  18.6869310  51.6759310  37.1629310  23.3249310  37.8919310  27.8019310
  22.3729310  37.8289310  27.8729310  23.6529310  37.1639310  28.3299310
  23.2449310  37.7909310  27.8789310  28.4539310  45.8999310  29.9239310
  28.8939310  46.4069310  30.6069310  27.7819310  45.4029310  30.3899310
  28.4249310  45.9009310  30.0709310  29.6689310  47.6679310  32.1519310
  28.9549310  48.2729310  31.9529310  30.3849310  48.2309310  32.4489310
  29.6699310  47.8169310  32.1649310  23.1809310  48.7289310  21.0899310
  23.4849310  47.8359310  21.2459310  23.7079310  49.2689310  21.6789310
  23.2869310  48.6839310  21.1849310  25.8039310  39.2169310  21.6659310
  25.9079310  39.5609310  22.5529310  25.6739310  39.9929310  21.1209310
  25.8009310  39.3599310  21.7099310  28.4459310  40.0649310  28.9929310
  29.3579310  40.0759310  29.2859310  28.4459310  39.4799310  28.2349310
  28.5629310  39.9909310  28.9339310  26.2909310  44.4019310  30.8439310
  25.4159310  44.1449310  30.5539310  26.6429310  43.6189310  31.2679310
  26.2239310  44.2689310  30.8609310  15.9999310  51.3179310  36.0019310
  15.7479310  52.2219310  36.1929310  16.9049310  51.2529310  36.3049310
  16.0839310  51.4259310  36.0649310  18.0329310  36.3909310  19.6529310
  18.3749310  36.3999310  20.5469310  17.5479310  37.2129310  19.5749310
  18.0149310  36.4979310  19.7569310  13.2019310  36.3069310  29.5569310
  14.0359310  36.7609310  29.4329310  12.6139310  36.7059310  28.9169310
  13.2339310  36.4159310  29.4599310  14.3009310  35.4399310  36.5689310
  13.4679310  35.0129310  36.7699310  14.2679310  36.2669310  37.0489310
  14.1899310  35.4909310  36.6559310  20.6359310  40.9019310  27.3069310
  20.7219310  40.1179310  27.8499310  21.0759310  41.5889310  27.8069310
  20.7029310  40.8899310  27.4399310  29.3139310  49.6419310  22.6429310
  29.4349310  50.5169310  22.2749310  29.5229310  49.0479310  21.9219310
  29.3559310  49.6779310  22.5029310  27.7319310  35.0409310  21.5209310
  27.8599310  35.9559310  21.2689310  26.7829310  34.9459310  21.6059310
  27.6269310  35.1459310  21.4999310  13.7109310  53.1239310  23.8259310
  12.9299310  52.9929310  23.2879310  13.6809310  54.0489310  24.0699310
  13.6069310  53.2259310  23.7879310  20.0639310  49.3899310  28.5159310
  19.5839310  48.5819310  28.6929310  20.7939310  49.3759310  29.1349310
  20.0959310  49.2849310  28.6179310  30.9069310  36.3789310  19.5219310
  30.7309310  37.2199310  19.1009310  30.0979310  35.8799310  19.4079310
  30.7809310  36.4229310  19.4539310  33.4759310  42.3069310  26.8999310
  33.4899310  41.9939310  27.8049310  33.4269310  43.2599310  26.9769310
  33.4719310  42.3889310  27.0259310  22.8689310  40.2429310  20.7829310
  22.2429310  39.5189310  20.8069310  23.0869310  40.4019310  21.7009310
  22.8169310  40.1709310  20.9029310  19.6069310  41.8909310  32.9029310
  18.7619310  41.5709310  33.2199310  20.0799310  41.0999310  32.6439310
  19.5589310  41.7489310  32.9109310  16.5339310  47.0769310  37.2369310
  17.3449310  46.5889310  37.0949310  16.2649310  47.3539310  36.3609310
  16.6029310  47.0499310  37.1059310  15.4419310  51.6489310  22.3599310
  14.8599310  52.1469310  22.9329310  15.6709310  52.2599310  21.6599310
  15.3969310  51.7909310  22.3439310  29.0409310  43.2079310  20.7839310
  28.5839310  42.9669310  21.5899310  29.9669310  43.0679310  20.9829310
  29.1009310  43.1589310  20.9129310  18.7959310  46.1169310  34.2649310
  19.6759310  45.7439310  34.2129310  18.2579310  45.5359310  33.7279310
  18.8399310  45.9949310  34.1899310  27.7849310  49.8279310  32.6219310
  27.4339310  49.7249310  33.5069310  27.9329310  50.7699310  32.5319310
  27.7589310  49.9349310  32.7239310  29.9219310  51.5949310  34.5009310
  30.1199310  51.1999310  35.3509310  29.2509310  52.2499310  34.6919310
  29.8609310  51.6279310  34.6339310  27.1659310  38.9249310  26.3719310
  27.8619310  38.5389310  25.8389310  26.5559310  38.2029310  26.5269310
  27.1769310  38.7829310  26.3229310  25.2399310  44.3739310  33.9139310
  24.6829310  43.9799310  33.2419310  24.6639310  44.9839310  34.3739310
  25.0949310  44.4019310  33.8869310  23.0669310  40.3609310  23.4469310
  22.2439310  40.6439310  23.8429310  23.7449310  40.7469310  24.0019310
  23.0489310  40.4459310  23.5689310  16.0789310  43.9519310  31.5399310
  15.7019310  43.8249310  32.4099310  15.5159310  43.4409310  30.9579310
  15.9589310  43.8709310  31.5769310  25.0859310  45.4619310  26.9949310
  25.6309310  45.9629310  27.6019310  24.3919310  46.0689310  26.7379310
  25.0669310  45.6029310  27.0399310  13.0689310  47.0279310  27.8159310
  13.4629310  46.9579310  26.9459310  13.6809310  46.5729310  28.3929310
  13.1979310  46.9609310  27.7779310  27.7899310  42.7079310  23.1879310
  27.7469310  43.3269310  23.9179310  27.4239310  41.8969310  23.5399310
  27.7379310  42.6839310  23.3269310  22.5399310  43.5719310  23.6669310
  21.8679310  42.8909310  23.6969310  22.6189310  43.7889310  22.7379310
  22.4639310  43.5129310  23.5519310  23.7259310  52.5509310  32.7849310
  23.1769310  52.4819310  32.0049310  24.0899310  51.6739310  32.9009310
  23.7029310  52.4299310  32.6999310  18.1599310  42.5459310  36.7359310
  18.0449310  42.2619310  35.8289310  17.2689310  42.6489310  37.0689310
  18.0309310  42.5229310  36.6619310  17.2049310  40.8729310  31.5819310
  16.6149310  40.1339310  31.4299310  17.8169310  40.8449310  30.8469310
  17.2079310  40.7749310  31.4679310  18.5899310  47.0649310  29.6139310
  18.5499310  46.1099310  29.5769310  18.1349310  47.2929310  30.4239310
  18.5269310  46.9719310  29.7129310  12.1729310  42.8199310  23.4329310
  12.8379310  43.4199310  23.7709310  11.3409310  43.2539310  23.6219310
  12.1519310  42.9519310  23.5009310  14.5059310  47.2649310  25.6349310
  15.1849310  46.9849310  26.2489310  14.6039310  48.2149310  25.5859310
  14.6049310  47.3509310  25.7079310  19.9199310  46.0009310  20.7219310
  19.5369310  45.6919310  19.9009310  20.1589310  46.9119310  20.5469310
  19.9019310  46.0779310  20.5949310  14.1759310  37.4559310  26.3999310
  13.9379310  36.6369310  25.9659310  13.4149310  38.0239310  26.2729310
  14.0479310  37.4239310  26.3279310  18.7469310  36.2709310  22.4039310
  18.9919310  35.3959310  22.7049310  18.5319310  36.7479310  23.2049310
  18.7509310  36.2199310  22.5449310  23.9789310  38.0199310  24.9419310
  23.6849310  38.7349310  24.3779310  23.7079310  38.2809310  25.8219310
  23.9069310  38.1449310  24.9819310  22.4329310  49.6759310  30.0239310
  22.3689310  49.1559310  30.8259310  22.9779310  50.4249310  30.2669310
  22.4939310  49.7049310  30.1579310  27.9319310  48.5719310  26.6429310
  27.0169310  48.5819310  26.3599310  28.0539310  47.7039310  27.0279310
  27.8299310  48.4619310  26.6559310  15.5849310  40.5359310  20.4379310
  14.6599310  40.2929310  20.4759310  15.5809310  41.4559310  20.1729310
  15.4669310  40.6229310  20.4089310  17.5539310  44.8889310  23.7269310
  18.3769310  45.3749310  23.6889310  17.6049310  44.3939310  24.5439310
  17.6659310  44.8879310  23.8259310  14.2449310  52.7639310  27.8029310
  13.7029310  53.1869310  28.4699310  15.1439310  52.9609310  28.0649310
  14.2899310  52.8439310  27.9219310  19.8489310  46.5259310  23.7289310
  19.3259310  47.2289310  24.1149310  19.8609310  46.7219310  22.7929310
  19.7839310  46.6409310  23.6589310  26.8919310  41.3929310  19.8929310
  27.3699310  41.0399310  19.1439310  27.3939310  42.1649310  20.1559310
  27.0169310  41.4469310  19.8309310  15.7859310  46.8289310  34.7229310
  15.7479310  47.1459310  33.8209310  14.9139310  46.4699310  34.8879310
  15.6689310  46.8229310  34.6289310  19.6939310  48.5689310  33.2979310
  18.9109310  48.9749310  32.9289310  19.4059310  47.6979310  33.5709310
  19.5569310  48.5089310  33.2859310  13.4319310  50.5809310  30.0409310
  14.0869310  50.9419310  29.4439310  12.7539310  50.2259310  29.4659310
  13.4289310  50.5819310  29.8909310  28.7439310  32.4729310  29.2919310
  28.8899310  32.8779310  30.1469310  27.7989310  32.5409310  29.1529310
  28.6419310  32.5329310  29.3839310  18.7199310  44.5259310  31.7769310
  19.0449310  43.7229310  32.1839310  17.8509310  44.2939310  31.4509310
  18.6499310  44.3939310  31.7869310  14.3359310  45.4599310  37.7459310
  15.1389310  45.9699310  37.6359310  13.8859310  45.8779310  38.4799310
  14.3809310  45.5789310  37.8259310  24.8319310  42.6079310  27.0059310
  25.3299310  42.4009310  26.2149310  25.0159310  43.5329310  27.1699310
  24.9189310  42.6999310  26.9259310  19.4569310  41.3539310  20.7469310
  18.9759310  40.5369310  20.6159310  19.8909310  41.5129310  19.9089310
  19.4509310  41.2699310  20.6229310  13.4209310  46.3909310  21.2049310
  14.1879310  46.0679310  21.6799310  12.6789310  46.1519310  21.7599310
  13.4239310  46.3189310  21.3369310  29.5199310  53.3799310  29.0739310
  29.3729310  52.4369310  29.1549310  30.1739310  53.5779310  29.7449310
  29.5849310  53.2839310  29.1699310  30.8529310  49.6579310  27.8599310
  30.0089310  50.0709310  28.0439310  30.7209310  48.7359310  28.0779310
  30.7279310  49.5929310  27.9109310  12.7589310  40.1469310  29.9009310
  13.5569310  39.7969310  29.5059310  12.7389310  39.7669310  30.7789310
  12.8579310  40.0529310  29.9629310  22.1529310  43.2039310  27.6289310
  21.7459310  43.9639310  27.2129310  23.0149310  43.1389310  27.2189310
  22.2109310  43.2929310  27.5229310  26.6899310  44.4429310  25.1109310
  27.3639310  44.8549310  25.6509310  25.8799310  44.8889310  25.3569310
  26.6729310  44.5529310  25.2109310  14.8439310  44.9339310  28.6139310
  15.8009310  44.9179310  28.5949310  14.5989310  44.1199310  29.0539310
  14.9349310  44.8279310  28.6679310  25.1469310  38.9439310  31.1529310
  24.6929310  39.3859310  30.4349310  24.6049310  39.1189310  31.9219310
  25.0199310  39.0229310  31.1589310  30.3119310  43.8719310  30.0969310
  29.9229310  43.3979310  30.8329310  29.7769310  44.6609310  30.0109310
  30.1939310  43.9119310  30.1799310  23.6859310  40.4199310  28.9629310
  24.3119310  40.8699310  28.3959310  23.5439310  39.5729310  28.5389310
  23.7479310  40.3689310  28.8359310  22.2209310  48.2969310  32.4619310
  22.6139310  49.1179310  32.7579310  21.3079310  48.3519310  32.7439310
  22.1549310  48.4089310  32.5359310  23.7099310  37.1649310  21.7189310
  22.9509310  37.4129310  21.1909310  24.2649310  37.9449310  21.7199310
  23.6839310  37.2969310  21.6519310  16.2449310  40.4579310  23.4359310
  16.1549310  40.1869310  22.5229310  15.3469310  40.6149310  23.7289310
  16.1179310  40.4439310  23.3569310  25.8319310  36.3489310  26.2319310
  25.1699310  36.7549310  25.6719310  26.5269310  36.0859310  25.6289310
  25.8359310  36.3679310  26.0829310  27.4449310  41.5809310  31.6109310
  27.1799310  40.9289310  32.2609310  27.6639310  41.0679310  30.8329310
  27.4389310  41.4319310  31.5949310  18.1909310  43.3739310  25.8359310
  18.3789310  42.6219310  25.2739310  19.0469310  43.7649310  26.0059310
  18.3239310  43.3279310  25.7859310  19.8469310  38.2339310  35.0759310
  20.7689310  38.3099310  35.3199310  19.3949310  38.8509310  35.6509310
  19.9069310  38.3219310  35.1799310  16.8379310  35.2439310  27.9949310
  17.0089310  36.1649310  28.1939310  17.4039310  34.7599310  28.5959310
  16.9319310  35.2999310  28.0969310  20.6409310  48.5809310  20.1189310
  21.4849310  48.5429310  20.5699310  20.8639310  48.7859310  19.2109310
  20.7779310  48.6019310  20.0609310  17.6919310  44.3709310  28.3879310
  17.9489310  43.9529310  27.5659310  17.7759310  43.6789310  29.0439310
  17.7359310  44.2289310  28.3669310  25.0039310  48.8259310  28.8469310
  25.1019310  49.0729310  27.9269310  24.1499310  49.1759310  29.0989310
  24.9069310  48.9019310  28.7619310  22.3939310  53.2399310  26.1859310
  22.2089310  52.4129310  25.7399310  22.0819310  53.9129310  25.5809310
  22.3299310  53.2199310  26.0509310  23.9819310  52.4749310  19.2759310
  24.1399310  53.3139310  18.8429310  24.2439310  52.6219310  20.1849310
  24.0359310  52.6009310  19.3369310  26.0919310  51.2519310  29.3859310
  25.5479310  51.8519310  28.8749310  25.7009310  50.3909310  29.2399310
  25.9729310  51.2189310  29.3019310  29.8669310  42.6609310  33.0089310
  28.9709310  42.3359310  32.9219310  29.7669310  43.5559310  33.3339310
  29.7389310  42.7339310  33.0399310  20.1839310  53.6199310  28.3589310
  20.1499310  52.9329310  29.0239310  20.6599310  53.2249310  27.6289310
  20.2399310  53.4819310  28.3509310  22.0629310  44.3479310  21.0469310
  22.7929310  44.9679310  21.0359310  21.2809310  44.8989310  21.0159310
  22.0559310  44.4979310  21.0409310  21.6949310  41.7289310  30.1629310
  21.2459310  40.9749310  30.5449310  22.4169310  41.3489310  29.6629310
  21.7299310  41.5839310  30.1479310  23.2299310  45.8529310  31.8749310
  22.9539310  46.6769310  32.2769310  24.1809310  45.8399310  31.9839310
  23.3169310  45.9569310  31.9399310  18.7179310  38.4659310  24.1459310
  18.5699310  39.4089310  24.0679310  17.9259310  38.1339310  24.5699310
  18.5979310  38.5439310  24.1899310  22.5859310  53.0759310  30.1239310
  23.3759310  53.6139310  30.0699310  21.9859310  53.4679310  29.4899310
  22.6099310  53.1949310  30.0359310  17.9739310  38.9549310  20.7409310
  17.0569310  38.7399310  20.9069310  18.4489310  38.5669310  21.4759310
  17.9169310  38.8779310  20.8559310  14.6159310  43.7009310  34.0119310
  13.9369310  44.3399310  34.2319310  14.2069310  42.8519310  34.1749310
  14.4759310  43.6739310  34.0609310  25.5759310  51.7059310  24.9759310
  25.2079310  52.2869310  25.6409310  26.4669310  52.0289310  24.8419310
  25.6429310  51.8219310  25.0439310  12.7639310  36.6099310  32.5939310
  13.6259310  36.5709310  33.0079310  12.9499310  36.7599310  31.6669310
  12.8979310  36.6239310  32.5279310  23.6809310  44.1429310  29.9609310
  23.4129310  44.7859310  30.6179310  22.8819310  43.9609310  29.4649310
  23.5439310  44.2019310  29.9809310  12.2229310  41.7809310  36.5809310
  11.6229310  42.5139310  36.7219310  12.7699310  41.7639310  37.3669310
  12.2159310  41.8729310  36.6999310  13.5789310  40.6819310  24.6239310
  13.9789310  41.2669310  25.2679310  13.1149310  41.2669310  24.0249310
  13.5709310  40.8319310  24.6299310  23.6579310  42.4769310  32.5229310
  23.4949310  42.7859310  31.6319310  22.7969310  42.2129310  32.8459310
  23.5269310  42.4829310  32.4509310  15.5389310  35.3609310  20.6689310
  15.5399310  36.1029310  21.2729310  16.0429310  35.6649310  19.9149310
  15.6039310  35.4949310  20.6499310  16.4549310  47.3969310  20.9529310
  16.5409310  47.3459310  20.0009310  15.9019310  48.1649310  21.1019310
  16.3949310  47.4889310  20.8499310  13.9689310  42.6179310  29.8119310
  13.1899310  43.1239310  30.0429310  13.7069310  41.7049310  29.9349310
  13.8359310  42.5659310  29.8569310  29.4129310  52.1129310  31.8589310
  29.6949310  52.0169310  32.7689310  28.6319310  52.6639310  31.9079310
  29.3489310  52.1709310  31.9819310  17.0649310  46.7749310  26.9179310
  16.9779310  47.5549310  27.4669310  17.1369310  46.0509310  27.5409310
  17.0629310  46.7819310  27.0679310  12.6959310  37.8589310  22.1229310
  12.6389310  37.6049310  21.2019310  12.1479310  38.6409310  22.1909310
  12.6189310  37.9269310  22.0139310  17.1669310  41.9159310  34.1019310
  17.0759310  41.7959310  33.1569310  16.4429310  42.4939310  34.3399310
  17.0629310  41.9749310  34.0109310  18.2489310  35.4319310  25.5539310
  17.8439310  35.1009310  26.3559310  18.3559310  34.6579310  25.0019310
  18.2109310  35.2909310  25.5859310  29.3339310  50.8909310  25.2939310
  29.4039310  50.2619310  26.0109310  29.3999310  50.3589310  24.5009310
  29.3509310  50.7429310  25.2839310  18.7919310  41.4779310  23.4399310
  19.1649310  41.4129310  22.5609310  17.8869310  41.1819310  23.3389310
  18.7239310  41.4309310  23.3149310  18.4909310  48.6349310  21.8739310
  17.7589310  48.1459310  21.4979310  19.1509310  48.6479310  21.1819310
  18.4809310  48.5739310  21.7379310  20.9369310  38.3749310  25.8249310
  20.0849310  38.2369310  25.4129310  20.9869310  39.3219310  25.9609310
  20.8349310  38.4789310  25.7899310  13.4369310  51.9799310  32.4449310
  13.1439310  51.7069310  31.5749310  13.1289310  52.8819310  32.5289310
  13.3599310  52.0599310  32.3439310  15.8089310  39.0429310  35.0159310
  16.5999310  39.0759310  34.4789310  15.4489310  39.9289310  34.9679310
  15.8639310  39.1599310  34.9409310  21.9819310  42.0459310  19.0639310
  21.9629310  42.6959310  19.7659310  22.3369310  41.2579310  19.4759310
  22.0249310  42.0289310  19.2059310  17.3519310  49.3439310  31.8429310
  16.7819310  50.0309310  32.1899310  16.8999310  48.5279310  32.0569310
  17.2209310  49.3279310  31.9149310  23.9439310  50.9249310  22.9339310
  23.2589310  50.8529310  23.5989310  24.7419310  51.1029310  23.4309310
  23.9579310  50.9379310  23.0829310  21.6549310  36.5489310  23.9159310
  21.4299310  37.3339310  24.4149310  22.5539310  36.7009310  23.6239310
  21.7419310  36.6689310  23.9429310  27.0819310  36.2689310  28.7859310
  27.9529310  35.8759310  28.8429310  26.9829310  36.4999310  27.8629310
  27.1809310  36.2479310  28.6749310  23.9899310  36.5359310  33.9199310
  23.7299310  35.7599310  33.4229310  24.9459310  36.5409310  33.8719310
  24.0789310  36.4369310  33.8499310  27.1069310  40.1339310  24.0339310
  26.8859310  39.8839310  24.9319310  27.9229310  39.6679310  23.8509310
  27.1829310  40.0419310  24.1259310  24.9529310  49.8969310  19.1809310
  24.5529310  50.7649310  19.2309310  24.4769310  49.3759310  19.8279310
  24.8409310  49.9419310  19.2699310  20.9099310  38.6839310  29.2009310
  20.0589310  38.2529310  29.1139310  21.0089310  38.8309310  30.1419310
  20.8129310  38.6479310  29.3099310  19.5409310  35.7049310  36.3519310
  18.9879310  36.0159310  37.0679310  19.6019310  36.4509310  35.7549310
  19.4779310  35.8399310  36.3669310  18.3319310  48.2179310  25.0369310
  17.6959310  47.7629310  25.5879310  17.8439310  48.9519310  24.6639310
  18.1889310  48.2539310  25.0599310  24.2099310  49.8889310  33.2419310
  24.0069310  49.5789310  34.1239310  24.7239310  49.1809310  32.8519310
  24.2499310  49.7579310  33.3049310  29.7979310  40.1579310  21.8699310
  28.9749310  39.6709310  21.8219310  29.5459310  41.0219310  22.1979310
  29.6609310  40.2059310  21.9059310  20.6219310  49.8589310  36.0239310
  20.2349310  49.4939310  35.2279310  19.9739310  50.4879310  36.3389310
  20.4889310  49.8919310  35.9629310  12.9819310  49.2129310  33.3929310
  12.5999310  50.0559310  33.6369310  13.8059310  49.4389310  32.9619310
  13.0379310  49.3499310  33.3689310  14.8849310  38.8389310  28.8149310
  14.7909310  38.3719310  27.9849310  15.7079310  38.5159310  29.1799310
  14.9779310  38.7379310  28.7559310  29.5219310  45.3279310  33.7059310
  28.6309310  45.5439310  33.9839310  29.7989310  46.0809310  33.1839310
  29.4429310  45.4519310  33.6749310  28.5899310  47.3499310  24.1379310
  28.6119310  47.4659310  25.0879310  28.7629310  48.2229310  23.7869310
  28.6149310  47.4769310  24.2149310  27.9649310  53.2899310  24.4449310
  27.7009310  53.2549310  23.5259310  28.5869310  52.5689310  24.5439310
  28.0109310  53.1929310  24.3399310  25.1389310  53.2859310  21.9559310
  24.6229310  52.6009310  22.3819310  24.6559310  54.0929310  22.1299310
  25.0109310  53.3009310  22.0329310  17.0479310  38.0969310  30.0709310
  17.4999310  37.5179310  30.6849310  17.6109310  38.1119310  29.2979310
  17.1779310  38.0249310  30.0509310  13.6299310  41.1969310  34.3399310
  13.0639310  41.5579310  33.6579310  13.1339310  41.3129310  35.1499310
  13.4939310  41.2579310  34.3559310  24.8759310  54.8289310  30.2569310
  25.6509310  54.6729310  29.7179310  24.8449310  55.7799310  30.3629310
  24.9709310  54.9309310  30.2019310  21.4459310  51.2409310  24.4859310
  21.2079310  50.4279310  24.9299310  20.6409310  51.5189310  24.0489310
  21.3129310  51.1729310  24.4869310  26.9489310  46.3669310  33.4899310
  26.3389310  45.6309310  33.5459310  26.5169310  46.9909310  32.9069310
  26.8159310  46.3519310  33.4229310  16.0469310  46.9549310  31.9149310
  15.5859310  47.2989310  31.1499310  16.1279310  46.0169310  31.7429310
  15.9979310  46.8789310  31.7949310  14.2429310  44.5959310  24.0999310
  15.1989310  44.6279310  24.1269310  13.9719310  45.5129310  24.1379310
  14.3309310  44.7169310  24.1079310  15.6019310  37.8859310  22.0709310
  15.9099310  37.9509310  22.9749310  14.6839310  37.6279310  22.1499310
  15.5239310  37.8609310  22.1969310  24.9109310  42.1469310  24.4549310
  25.5309310  42.5909310  23.8759310  24.1009310  42.6509310  24.3699310
  24.8869310  42.2689310  24.3699310  11.5309310  48.1989310  20.4159310
  12.1589310  47.6759310  20.9149310  12.0249310  48.5049310  19.6549310
  11.6749310  48.1709310  20.3829310  17.2029310  50.2829310  23.6869310
  16.5029310  50.6809310  23.1699310  17.6349310  49.6799310  23.0809310
  17.1689310  50.2569310  23.5429310  25.8039310  48.2259310  31.5089310
  25.6309310  48.1489310  30.5709310  26.5869310  48.7729310  31.5639310
  25.8819310  48.2859310  31.3959310  20.6219310  44.6099310  25.8279310
  21.1359310  44.0099310  25.2879310  20.3479310  45.2999310  25.2239310
  20.6519310  44.6209310  25.6819310  27.6499310  53.1769310  35.1189310
  28.0589310  53.3489310  35.9669310  27.3809310  52.2599310  35.1639310
  27.6679310  53.0819310  35.2329310  26.6639310  37.8389310  33.3869310
  26.3769310  38.6649310  33.7779310  26.4409310  37.9229310  32.4599310
  26.5979310  37.9559310  33.3189310  30.3169310  52.4689310  22.1169310
  30.9039310  52.2919310  21.3819310  29.7259310  53.1489310  21.7929310
  30.3159310  52.5329310  21.9809310  13.1089310  51.9649310  19.8739310
  13.6659310  51.2059310  20.0459310  13.6769310  52.7189310  20.0299310
  13.2529310  51.9639310  19.9159310  30.1569310  50.8239310  37.1119310
  29.3849310  50.8549310  37.6759310  30.7739310  51.4339310  37.5179310
  30.1369310  50.9059310  37.2369310  30.6789310  39.1749310  25.8729310
  31.2609310  39.6599310  25.2869310  30.1129310  39.8449310  26.2559310
  30.6809310  39.3229310  25.8469310  18.3979310  37.9939310  27.7389310
  18.2199310  38.5839310  27.0069310  18.8829310  37.2669310  27.3489310
  18.4369310  37.9769310  27.5959310  12.0029310  44.5839310  26.3159310
  12.5999310  44.8399310  25.6119310  12.3059310  45.0789310  27.0779310
  12.1179310  44.6799310  26.3229310  14.6839310  48.0909310  30.1209310
  14.9429310  48.7839310  29.5129310  13.8119310  48.3499310  30.4199310
  14.6059310  48.2129310  30.0809310  28.3719310  45.6809310  27.1019310
  29.2249310  45.3399310  26.8319310  28.3939310  45.6519310  28.0579310
  28.4839310  45.6329310  27.1889310  21.3019310  42.5919310  35.0069310
  20.5479310  42.2619310  34.5179310  21.1009310  42.3939310  35.9209310
  21.1799310  42.5239310  35.0609310  30.4479310  35.7069310  26.6099310
  29.8519310  35.3569310  27.2719310  31.1659310  35.0749310  26.5749310
  30.4639310  35.5819310  26.6899310  26.5179310  46.3519310  22.3169310
  26.9139310  46.6929310  23.1189310  27.0089310  46.7709310  21.6099310
  26.6309310  46.4489310  22.3289310  26.2469310  40.4379310  34.2789310
  26.9399310  40.6319310  34.9109310  25.6109310  41.1439310  34.3969310
  26.2539310  40.5529310  34.3749310  26.7119310  52.7079310  31.7539310
  26.2389310  53.5409310  31.7469310  26.1809310  52.1269310  31.2099310
  26.5829310  52.7399310  31.6839310  18.8239310  37.3789310  13.7379310
  19.0519310  37.3509310  14.6669310  18.1949310  36.6669310  13.6249310
  18.7729310  37.2839310  13.8429310  16.2229310  51.5649310  13.9979310
  15.2689310  51.4969310  13.9659310  16.4119310  51.8719310  14.8839310
  16.1249310  51.5959310  14.1069310  20.9879310  49.0089310   7.1609310
  20.8139310  49.1699310   8.0889310  20.2229310  48.5229310   6.8549310
  20.8679310  48.9669310   7.2409310  16.7399310  35.6649310  13.2439310
  16.1799310  36.1129310  13.8779310  16.5939310  34.7339310  13.4109310
  16.6499310  35.6029310  13.3459310  17.5589310  43.9059310   2.4919310
  17.4049310  44.3629310   3.3189310  18.2709310  43.2959310   2.6839310
  17.6299310  43.8859310   2.6219310  20.9539310  39.1149310  13.0969310
  20.3509310  38.4739310  13.4719310  21.7429310  39.0459310  13.6349310
  20.9779310  39.0249310  13.2139310  21.4919310  35.5519310  19.3749310
  22.3839310  35.3229310  19.1109310  20.9699310  35.4309310  18.5819310
  21.5399310  35.5079310  19.2399310  14.4459310  50.1619310   7.4549310
  14.4839310  51.0549310   7.1109310  13.6469310  50.1409310   7.9809310
  14.3489310  50.2739310   7.4779310  19.1569310  51.9519310   4.1439310
  18.3579310  51.4249310   4.1539310  19.5009310  51.8489310   3.2569310
  19.0989310  51.8709310   4.0319310  23.3769310  38.9409310  14.3649310
  23.5549310  38.0589310  14.6909310  23.6959310  39.5209310  15.0569310
  23.4409310  38.9019310  14.4959310  23.0649310  46.9369310   6.6109310
  22.6389310  46.3299310   6.0069310  22.4019310  47.6039310   6.7889310
  22.9259310  46.9449310   6.5569310  28.8169310  37.5689310   5.8639310
  28.8849310  36.6219310   5.7399310  29.6859310  37.8339310   6.1649310
  28.9369310  37.4819310   5.8869310  29.9359310  41.8599310   7.7049310
  29.1569310  41.9699310   8.2499310  30.2799310  42.7459310   7.5959310
  29.8799310  41.9869310   7.7609310  21.2669310  45.1759310  15.1369310
  21.1389310  44.3109310  15.5259310  21.7099310  45.0009310  14.3059310
  21.3069310  45.0429310  15.0799310  29.8789310  45.7649310   3.8859310
  29.5129310  46.4059310   4.4959310  29.1139310  45.3429310   3.4939310
  29.7339310  45.7929310   3.9139310  12.3909310  39.5059310  13.6939310
  12.6679310  40.0749310  14.4119310  11.7889310  38.8829310  14.1009310
  12.3499310  39.4989310  13.8379310  13.2639310  45.8429310  16.2869310
  12.3429310  45.6229310  16.1469310  13.3439310  45.9499310  17.2339310
  13.1559310  45.8279310  16.3899310  28.2039310  37.7949310   2.9909310
  28.3359310  37.6509310   3.9279310  27.3359310  38.1939310   2.9309310
  28.1099310  37.8269310   3.1039310  24.8539310  49.5319310   7.4919310
  25.0299310  50.3819310   7.0889310  24.0949310  49.1949310   7.0179310
  24.7799310  49.5979310   7.3799310  24.6439310  52.8569310   8.7439310
  25.2299310  53.5939310   8.5689310  23.8619310  53.0429310   8.2249310
  24.6189310  52.9749310   8.6549310  16.9659310  40.1119310   7.2639310
  16.5589310  40.1109310   6.3969310  16.4799310  40.7749310   7.7549310
  16.8519310  40.1969310   7.2159310  15.0849310  36.5079310  15.2819310
  15.2919310  37.4059310  15.5389310  14.7289310  36.1069310  16.0749310
  15.0659310  36.5709310  15.4159310  16.3929310  37.2989310   5.9819310
  15.6349310  37.2859310   6.5669310  16.9249310  36.5549310   6.2629310
  16.3639310  37.2019310   6.0929310  23.4329310  40.9969310  16.2809310
  24.0189310  41.3099310  16.9699310  22.7069310  41.6219310  16.2809310
  23.4149310  41.1169310  16.3689310  21.0529310  41.4979310   5.8129310
  20.2279310  41.4799310   5.3279310  20.8019310  41.3119310   6.7179310
  20.9149310  41.4719310   5.8669310  18.1669310  51.1629310  10.4299310
  17.9059310  50.7879310  11.2709310  18.8979310  50.6179310  10.1409310
  18.2269310  51.0449310  10.4999310  16.4049310  49.3559310   9.1449310
  15.6809310  49.6589310   8.5969310  16.9989310  50.1059310   9.1929310
  16.3889310  49.4909310   9.0809310  12.9539310  39.5099310  19.3349310
  12.7559310  39.5909310  18.4029310  12.1599310  39.8129310  19.7759310
  12.8269310  39.5589310  19.2719310  20.3049310  51.5819310   1.7759310
  20.7639310  50.7599310   1.9479310  21.0029310  52.2219310   1.6369310
  20.4529310  51.5589310   1.7799310  19.0279310  42.0729310  10.7579310
  19.9089310  42.3649310  10.9899310  19.1139310  41.7389310   9.8649310
  19.1519310  42.0679310  10.6729310  12.9219310  48.5359310  18.0919310
  12.1599310  49.1039310  17.9749310  13.1269310  48.2259310  17.2099310
  12.8499310  48.5689310  17.9639310  14.9929310  49.8309310  19.4289310
  15.4759310  50.3919310  18.8219310  14.5499310  49.1949310  18.8679310
  14.9979310  49.8219310  19.2799310  18.6189310  51.5669310  18.2269310
  19.1929310  51.4799310  18.9879310  18.5769310  52.5089310  18.0649310
  18.6869310  51.6759310  18.3029310  23.3249310  37.8919310   8.9419310
  22.3729310  37.8289310   9.0129310  23.6529310  37.1639310   9.4699310
  23.2449310  37.7909310   9.0189310  28.4539310  45.8999310  11.0639310
  28.8939310  46.4069310  11.7469310  27.7819310  45.4029310  11.5299310
  28.4249310  45.9009310  11.2109310  29.6689310  47.6679310  13.2919310
  28.9549310  48.2729310  13.0929310  30.3849310  48.2309310  13.5889310
  29.6699310  47.8169310  13.3049310  18.9739310  45.4209310  18.1279310
  18.8169310  44.4769310  18.0919310  18.8849310  45.7129310  17.2209310
  18.9419310  45.3369310  18.0069310  23.1809310  48.7289310   2.2299310
  23.4849310  47.8359310   2.3859310  23.7079310  49.2689310   2.8189310
  23.2869310  48.6839310   2.3249310  25.8039310  39.2169310   2.8059310
  25.9079310  39.5609310   3.6929310  25.6739310  39.9929310   2.2609310
  25.8009310  39.3599310   2.8499310  28.4459310  40.0649310  10.1329310
  29.3579310  40.0759310  10.4259310  28.4459310  39.4799310   9.3749310
  28.5629310  39.9909310  10.0739310  26.2909310  44.4019310  11.9839310
  25.4159310  44.1449310  11.6939310  26.6429310  43.6189310  12.4079310
  26.2239310  44.2689310  12.0009310  15.9999310  51.3179310  17.1419310
  15.7479310  52.2219310  17.3329310  16.9049310  51.2529310  17.4449310
  16.0839310  51.4259310  17.2049310  13.2019310  36.3069310  10.6969310
  14.0359310  36.7609310  10.5729310  12.6139310  36.7059310  10.0569310
  13.2339310  36.4159310  10.5999310  14.3009310  35.4399310  17.7089310
  13.4679310  35.0129310  17.9099310  14.2679310  36.2669310  18.1889310
  14.1899310  35.4909310  17.7959310  20.6359310  40.9019310   8.4469310
  20.7219310  40.1179310   8.9899310  21.0759310  41.5889310   8.9469310
  20.7029310  40.8899310   8.5799310  29.2979310  38.5199310  17.7869310
  28.3989310  38.1919310  17.7819310  29.6229310  38.3429310  16.9049310
  29.2239310  38.4549310  17.6739310  29.3139310  49.6419310   3.7829310
  29.4349310  50.5169310   3.4149310  29.5229310  49.0479310   3.0619310
  29.3559310  49.6779310   3.6429310  27.7319310  35.0409310   2.6609310
  27.8599310  35.9559310   2.4089310  26.7829310  34.9459310   2.7459310
  27.6269310  35.1459310   2.6399310  13.7109310  53.1239310   4.9659310
  12.9299310  52.9929310   4.4279310  13.6809310  54.0489310   5.2099310
  13.6069310  53.2259310   4.9279310  23.7619310  48.9259310  16.9169310
  24.3439310  48.7619310  17.6579310  23.1689310  49.6119310  17.2249310
  23.7599310  48.9929310  17.0509310  20.0639310  49.3899310   9.6559310
  19.5839310  48.5819310   9.8329310  20.7939310  49.3759310  10.2749310
  20.0959310  49.2849310   9.7579310  33.4759310  42.3069310   8.0399310
  33.4899310  41.9939310   8.9449310  33.4269310  43.2599310   8.1169310
  33.4719310  42.3889310   8.1659310  22.8689310  40.2429310   1.9229310
  22.2429310  39.5189310   1.9469310  23.0869310  40.4019310   2.8409310
  22.8169310  40.1709310   2.0429310  19.6069310  41.8909310  14.0429310
  18.7619310  41.5709310  14.3599310  20.0799310  41.0999310  13.7839310
  19.5589310  41.7489310  14.0509310  16.5339310  47.0769310  18.3769310
  17.3449310  46.5889310  18.2349310  16.2649310  47.3539310  17.5009310
  16.6029310  47.0499310  18.2459310  15.4419310  51.6489310   3.4999310
  14.8599310  52.1469310   4.0729310  15.6709310  52.2599310   2.7999310
  15.3969310  51.7909310   3.4839310  29.3349310  37.7579310  15.2179310
  28.4689310  37.5939310  14.8469310  29.9169310  37.1659310  14.7399310
  29.2989310  37.6609310  15.1089310  29.0409310  43.2079310   1.9239310
  28.5839310  42.9669310   2.7299310  29.9669310  43.0679310   2.1229310
  29.1009310  43.1589310   2.0529310  18.7959310  46.1169310  15.4049310
  19.6759310  45.7439310  15.3529310  18.2579310  45.5359310  14.8679310
  18.8399310  45.9949310  15.3299310  27.7849310  49.8279310  13.7619310
  27.4339310  49.7249310  14.6469310  27.9329310  50.7699310  13.6719310
  27.7589310  49.9349310  13.8639310  29.9219310  51.5949310  15.6409310
  30.1199310  51.1999310  16.4909310  29.2509310  52.2499310  15.8319310
  29.8609310  51.6279310  15.7739310  27.1659310  38.9249310   7.5119310
  27.8619310  38.5389310   6.9789310  26.5559310  38.2029310   7.6669310
  27.1769310  38.7829310   7.4629310  25.2399310  44.3739310  15.0539310
  24.6829310  43.9799310  14.3819310  24.6639310  44.9839310  15.5139310
  25.0949310  44.4019310  15.0269310  29.1539310  43.6349310  18.2479310
  28.3309310  43.9749310  17.8989310  29.0099310  43.5789310  19.1929310
  29.0309310  43.6709310  18.3239310  23.0669310  40.3609310   4.5869310
  22.2439310  40.6439310   4.9829310  23.7449310  40.7469310   5.1419310
  23.0489310  40.4459310   4.7089310  16.0789310  43.9519310  12.6799310
  15.7019310  43.8249310  13.5499310  15.5159310  43.4409310  12.0979310
  15.9589310  43.8709310  12.7169310  25.0859310  45.4619310   8.1349310
  25.6309310  45.9629310   8.7419310  24.3919310  46.0689310   7.8779310
  25.0669310  45.6029310   8.1799310  13.0689310  47.0279310   8.9559310
  13.4629310  46.9579310   8.0859310  13.6809310  46.5729310   9.5329310
  13.1979310  46.9609310   8.9179310  27.7899310  42.7079310   4.3279310
  27.7469310  43.3269310   5.0579310  27.4239310  41.8969310   4.6799310
  27.7379310  42.6839310   4.4669310  22.5399310  43.5719310   4.8069310
  21.8679310  42.8909310   4.8369310  22.6189310  43.7889310   3.8779310
  22.4639310  43.5129310   4.6919310  16.2269310  38.4249310  18.7699310
  16.0739310  38.7049310  17.8679310  15.9899310  39.1849310  19.3009310
  16.1769310  38.5579310  18.7229310  23.7259310  52.5509310  13.9249310
  23.1769310  52.4819310  13.1449310  24.0899310  51.6739310  14.0409310
  23.7029310  52.4299310  13.8399310  18.1599310  42.5459310  17.8759310
  18.0449310  42.2619310  16.9689310  17.2689310  42.6489310  18.2089310
  18.0309310  42.5229310  17.8019310  17.2049310  40.8729310  12.7219310
  16.6149310  40.1339310  12.5699310  17.8169310  40.8449310  11.9869310
  17.2079310  40.7749310  12.6079310  18.5899310  47.0649310  10.7539310
  18.5499310  46.1099310  10.7169310  18.1349310  47.2929310  11.5639310
  18.5269310  46.9719310  10.8529310  26.5549310  43.7179310  17.4359310
  25.8639310  43.0779310  17.6039310  26.3469310  44.0739310  16.5729310
  26.4399310  43.6809310  17.3469310  12.1729310  42.8199310   4.5729310
  12.8379310  43.4199310   4.9109310  11.3409310  43.2539310   4.7619310
  12.1519310  42.9519310   4.6409310  14.5059310  47.2649310   6.7749310
  15.1849310  46.9849310   7.3889310  14.6039310  48.2149310   6.7259310
  14.6049310  47.3509310   6.8479310  14.1759310  37.4559310   7.5399310
  13.9379310  36.6369310   7.1059310  13.4149310  38.0239310   7.4129310
  14.0479310  37.4239310   7.4679310  18.7469310  36.2709310   3.5439310
  18.9919310  35.3959310   3.8449310  18.5319310  36.7479310   4.3449310
  18.7509310  36.2199310   3.6849310  23.9789310  38.0199310   6.0819310
  23.6849310  38.7349310   5.5179310  23.7079310  38.2809310   6.9619310
  23.9069310  38.1449310   6.1219310  22.4329310  49.6759310  11.1639310
  22.3689310  49.1559310  11.9659310  22.9779310  50.4249310  11.4069310
  22.4939310  49.7049310  11.2979310  27.9319310  48.5719310   7.7829310
  27.0169310  48.5819310   7.4999310  28.0539310  47.7039310   8.1679310
  27.8299310  48.4619310   7.7959310  17.5539310  44.8889310   4.8669310
  18.3769310  45.3749310   4.8289310  17.6049310  44.3939310   5.6839310
  17.6659310  44.8879310   4.9659310  14.2449310  52.7639310   8.9429310
  13.7029310  53.1869310   9.6099310  15.1439310  52.9609310   9.2049310
  14.2899310  52.8439310   9.0619310  19.8489310  46.5259310   4.8689310
  19.3259310  47.2289310   5.2549310  19.8609310  46.7219310   3.9329310
  19.7839310  46.6409310   4.7989310  15.7859310  46.8289310  15.8629310
  15.7479310  47.1459310  14.9609310  14.9139310  46.4699310  16.0279310
  15.6689310  46.8229310  15.7689310  19.6939310  48.5689310  14.4379310
  18.9109310  48.9749310  14.0689310  19.4059310  47.6979310  14.7109310
  19.5569310  48.5089310  14.4259310  13.4319310  50.5809310  11.1809310
  14.0869310  50.9419310  10.5839310  12.7539310  50.2259310  10.6059310
  13.4289310  50.5819310  11.0309310  28.7439310  32.4729310  10.4319310
  28.8899310  32.8779310  11.2869310  27.7989310  32.5409310  10.2929310
  28.6419310  32.5329310  10.5239310  18.7199310  44.5259310  12.9169310
  19.0449310  43.7229310  13.3239310  17.8509310  44.2939310  12.5909310
  18.6499310  44.3939310  12.9269310  14.3359310  45.4599310  18.8859310
  15.1389310  45.9699310  18.7759310  13.8859310  45.8779310  19.6199310
  14.3809310  45.5789310  18.9659310  24.8319310  42.6079310   8.1459310
  25.3299310  42.4009310   7.3549310  25.0159310  43.5329310   8.3099310
  24.9189310  42.6999310   8.0659310  13.4209310  46.3909310   2.3449310
  14.1879310  46.0679310   2.8199310  12.6789310  46.1519310   2.8999310
  13.4239310  46.3189310   2.4769310  29.5199310  53.3799310  10.2139310
  29.3729310  52.4369310  10.2949310  30.1739310  53.5779310  10.8849310
  29.5849310  53.2839310  10.3099310  30.8529310  49.6579310   8.9999310
  30.0089310  50.0709310   9.1839310  30.7209310  48.7359310   9.2179310
  30.7279310  49.5929310   9.0509310  12.7589310  40.1469310  11.0409310
  13.5569310  39.7969310  10.6459310  12.7389310  39.7669310  11.9189310
  12.8579310  40.0529310  11.1029310  22.1529310  43.2039310   8.7689310
  21.7459310  43.9639310   8.3529310  23.0149310  43.1389310   8.3589310
  22.2109310  43.2929310   8.6629310  26.6899310  44.4429310   6.2509310
  27.3639310  44.8549310   6.7909310  25.8799310  44.8889310   6.4969310
  26.6729310  44.5529310   6.3509310  14.8439310  44.9339310   9.7539310
  15.8009310  44.9179310   9.7349310  14.5989310  44.1199310  10.1939310
  14.9349310  44.8279310   9.8079310  25.1469310  38.9439310  12.2929310
  24.6929310  39.3859310  11.5749310  24.6049310  39.1189310  13.0619310
  25.0199310  39.0229310  12.2989310  30.3119310  43.8719310  11.2369310
  29.9229310  43.3979310  11.9729310  29.7769310  44.6609310  11.1509310
  30.1939310  43.9119310  11.3199310  23.6859310  40.4199310  10.1029310
  24.3119310  40.8699310   9.5359310  23.5439310  39.5729310   9.6789310
  23.7479310  40.3689310   9.9759310  22.2209310  48.2969310  13.6019310
  22.6139310  49.1179310  13.8979310  21.3079310  48.3519310  13.8839310
  22.1549310  48.4089310  13.6759310  23.7099310  37.1649310   2.8589310
  22.9509310  37.4129310   2.3309310  24.2649310  37.9449310   2.8599310
  23.6839310  37.2969310   2.7919310  16.2449310  40.4579310   4.5759310
  16.1549310  40.1869310   3.6629310  15.3469310  40.6149310   4.8689310
  16.1179310  40.4439310   4.4969310  25.8319310  36.3489310   7.3719310
  25.1699310  36.7549310   6.8119310  26.5269310  36.0859310   6.7689310
  25.8359310  36.3679310   7.2229310  27.4449310  41.5809310  12.7509310
  27.1799310  40.9289310  13.4009310  27.6639310  41.0679310  11.9729310
  27.4389310  41.4319310  12.7349310  18.1909310  43.3739310   6.9759310
  18.3789310  42.6219310   6.4139310  19.0469310  43.7649310   7.1459310
  18.3239310  43.3279310   6.9259310  19.8469310  38.2339310  16.2159310
  20.7689310  38.3099310  16.4599310  19.3949310  38.8509310  16.7909310
  19.9069310  38.3219310  16.3199310  16.8379310  35.2439310   9.1349310
  17.0089310  36.1649310   9.3339310  17.4039310  34.7599310   9.7359310
  16.9319310  35.2999310   9.2369310  17.6919310  44.3709310   9.5279310
  17.9489310  43.9529310   8.7059310  17.7759310  43.6789310  10.1839310
  17.7359310  44.2289310   9.5069310  25.0039310  48.8259310   9.9869310
  25.1019310  49.0729310   9.0669310  24.1499310  49.1759310  10.2389310
  24.9069310  48.9019310   9.9019310  22.3939310  53.2399310   7.3259310
  22.2089310  52.4129310   6.8799310  22.0819310  53.9129310   6.7209310
  22.3299310  53.2199310   7.1909310  28.4979310  35.1099310  18.9509310
  27.9569310  34.5949310  19.5489310  28.0339310  35.9429310  18.8639310
  28.3699310  35.1509310  19.0169310  26.0919310  51.2519310  10.5259310
  25.5479310  51.8519310  10.0149310  25.7009310  50.3909310  10.3799310
  25.9729310  51.2189310  10.4419310  29.8669310  42.6609310  14.1489310
  28.9709310  42.3359310  14.0619310  29.7669310  43.5559310  14.4739310
  29.7389310  42.7339310  14.1799310  20.1839310  53.6199310   9.4989310
  20.1499310  52.9329310  10.1639310  20.6599310  53.2249310   8.7689310
  20.2399310  53.4819310   9.4909310  22.0629310  44.3479310   2.1869310
  22.7929310  44.9679310   2.1759310  21.2809310  44.8989310   2.1559310
  22.0559310  44.4979310   2.1809310  21.6949310  41.7289310  11.3029310
  21.2459310  40.9749310  11.6849310  22.4169310  41.3489310  10.8029310
  21.7299310  41.5839310  11.2879310  23.2299310  45.8529310  13.0149310
  22.9539310  46.6769310  13.4169310  24.1809310  45.8399310  13.1239310
  23.3169310  45.9569310  13.0799310  18.7179310  38.4659310   5.2859310
  18.5699310  39.4089310   5.2079310  17.9259310  38.1339310   5.7099310
  18.5979310  38.5439310   5.3299310  22.5859310  53.0759310  11.2639310
  23.3759310  53.6139310  11.2099310  21.9859310  53.4679310  10.6299310
  22.6099310  53.1949310  11.1759310  22.3689310  38.8099310  17.7049310
  21.9029310  39.4079310  18.2889310  22.9639310  39.3739310  17.2099310
  22.3849310  38.9579310  17.7159310  17.9739310  38.9549310   1.8809310
  17.0569310  38.7399310   2.0469310  18.4489310  38.5669310   2.6159310
  17.9169310  38.8779310   1.9959310  14.6159310  43.7009310  15.1519310
  13.9369310  44.3399310  15.3719310  14.2069310  42.8519310  15.3149310
  14.4759310  43.6739310  15.2009310  25.5759310  51.7059310   6.1159310
  25.2079310  52.2869310   6.7809310  26.4669310  52.0289310   5.9819310
  25.6429310  51.8219310   6.1839310  12.7639310  36.6099310  13.7339310
  13.6259310  36.5709310  14.1479310  12.9499310  36.7599310  12.8069310
  12.8979310  36.6239310  13.6679310  23.6809310  44.1429310  11.1009310
  23.4129310  44.7859310  11.7579310  22.8819310  43.9609310  10.6049310
  23.5439310  44.2019310  11.1209310  12.2229310  41.7809310  17.7209310
  11.6229310  42.5139310  17.8619310  12.7699310  41.7639310  18.5069310
  12.2159310  41.8729310  17.8399310  13.5789310  40.6819310   5.7639310
  13.9789310  41.2669310   6.4079310  13.1149310  41.2669310   5.1649310
  13.5709310  40.8319310   5.7699310  23.6579310  42.4769310  13.6629310
  23.4949310  42.7859310  12.7719310  22.7969310  42.2129310  13.9859310
  23.5269310  42.4829310  13.5909310  23.8799310  36.6979310  17.8009310
  23.8769310  36.4079310  16.8889310  23.2079310  37.3789310  17.8379310
  23.7929310  36.7479310  17.6889310  23.5899310  46.1399310  16.1989310
  22.7719310  45.9839310  15.7279310  23.6379310  47.0919310  16.2879310
  23.4919310  46.2419310  16.1499310  27.9399310  40.8359310  17.4299310
  28.6529310  40.2039310  17.5249310  28.3799310  41.6729310  17.2839310
  28.0869310  40.8619310  17.4229310  13.9689310  42.6179310  10.9519310
  13.1899310  43.1239310  11.1829310  13.7069310  41.7049310  11.0749310
  13.8359310  42.5659310  10.9969310  29.4129310  52.1129310  12.9989310
  29.6949310  52.0169310  13.9089310  28.6319310  52.6639310  13.0479310
  29.3489310  52.1709310  13.1219310  17.0649310  46.7749310   8.0579310
  16.9779310  47.5549310   8.6069310  17.1369310  46.0509310   8.6809310
  17.0629310  46.7819310   8.2079310  12.6959310  37.8589310   3.2629310
  12.6389310  37.6049310   2.3419310  12.1479310  38.6409310   3.3309310
  12.6189310  37.9269310   3.1539310  17.1669310  41.9159310  15.2419310
  17.0759310  41.7959310  14.2969310  16.4429310  42.4939310  15.4799310
  17.0629310  41.9749310  15.1509310  18.2489310  35.4319310   6.6939310
  17.8439310  35.1009310   7.4959310  18.3559310  34.6579310   6.1419310
  18.2109310  35.2909310   6.7259310  29.3339310  50.8909310   6.4339310
  29.4039310  50.2619310   7.1509310  29.3999310  50.3589310   5.6409310
  29.3509310  50.7429310   6.4239310  18.7919310  41.4779310   4.5799310
  19.1649310  41.4129310   3.7009310  17.8869310  41.1819310   4.4789310
  18.7239310  41.4309310   4.4549310  18.4909310  48.6349310   3.0139310
  17.7589310  48.1459310   2.6379310  19.1509310  48.6479310   2.3219310
  18.4809310  48.5739310   2.8779310  20.9369310  38.3749310   6.9649310
  20.0849310  38.2369310   6.5529310  20.9869310  39.3219310   7.1009310
  20.8349310  38.4789310   6.9299310  13.4369310  51.9799310  13.5849310
  13.1439310  51.7069310  12.7149310  13.1289310  52.8819310  13.6689310
  13.3599310  52.0599310  13.4839310  15.8089310  39.0429310  16.1559310
  16.5999310  39.0759310  15.6189310  15.4489310  39.9289310  16.1079310
  15.8639310  39.1599310  16.0809310  26.9649310  37.2959310  17.6249310
  27.0259310  36.9489310  16.7349310  26.0249310  37.3439310  17.7989310
  26.8519310  37.2579310  17.5329310  17.3519310  49.3439310  12.9829310
  16.7819310  50.0309310  13.3299310  16.8999310  48.5279310  13.1969310
  17.2209310  49.3279310  13.0549310  23.9439310  50.9249310   4.0739310
  23.2589310  50.8529310   4.7389310  24.7419310  51.1029310   4.5709310
  23.9579310  50.9379310   4.2229310  21.6549310  36.5489310   5.0559310
  21.4299310  37.3339310   5.5549310  22.5539310  36.7009310   4.7639310
  21.7419310  36.6689310   5.0829310  27.0819310  36.2689310   9.9259310
  27.9529310  35.8759310   9.9829310  26.9829310  36.4999310   9.0029310
  27.1809310  36.2479310   9.8149310  23.9899310  36.5359310  15.0599310
  23.7299310  35.7599310  14.5629310  24.9459310  36.5409310  15.0119310
  24.0789310  36.4369310  14.9899310  27.1069310  40.1339310   5.1739310
  26.8859310  39.8839310   6.0719310  27.9229310  39.6679310   4.9909310
  27.1829310  40.0419310   5.2659310  20.9099310  38.6839310  10.3409310
  20.0589310  38.2529310  10.2539310  21.0089310  38.8309310  11.2819310
  20.8129310  38.6479310  10.4499310  19.5409310  35.7049310  17.4919310
  18.9879310  36.0159310  18.2079310  19.6019310  36.4509310  16.8949310
  19.4779310  35.8399310  17.5069310  18.3319310  48.2179310   6.1769310
  17.6959310  47.7629310   6.7279310  17.8439310  48.9519310   5.8039310
  18.1889310  48.2539310   6.1999310  24.2099310  49.8889310  14.3819310
  24.0069310  49.5789310  15.2639310  24.7239310  49.1809310  13.9919310
  24.2499310  49.7579310  14.4449310  29.7979310  40.1579310   3.0099310
  28.9749310  39.6709310   2.9619310  29.5459310  41.0219310   3.3379310
  29.6609310  40.2059310   3.0459310  26.8549310  47.4909310  17.0289310
  26.2149310  46.9579310  17.5009310  26.8169310  47.1679310  16.1279310
  26.7679310  47.3809310  16.9739310  20.6219310  49.8589310  17.1639310
  20.2349310  49.4939310  16.3679310  19.9739310  50.4879310  17.4789310
  20.4889310  49.8919310  17.1029310  12.9819310  49.2129310  14.5329310
  12.5999310  50.0559310  14.7769310  13.8059310  49.4389310  14.1019310
  13.0379310  49.3499310  14.5089310  14.8849310  38.8389310   9.9549310
  14.7909310  38.3719310   9.1249310  15.7079310  38.5159310  10.3199310
  14.9779310  38.7379310   9.8959310  29.5219310  45.3279310  14.8459310
  28.6309310  45.5439310  15.1239310  29.7989310  46.0809310  14.3239310
  29.4429310  45.4519310  14.8149310  28.5899310  47.3499310   5.2779310
  28.6119310  47.4659310   6.2279310  28.7629310  48.2229310   4.9269310
  28.6149310  47.4769310   5.3549310  27.9649310  53.2899310   5.5849310
  27.7009310  53.2549310   4.6659310  28.5869310  52.5689310   5.6839310
  28.0109310  53.1929310   5.4799310  25.1389310  53.2859310   3.0959310
  24.6229310  52.6009310   3.5219310  24.6559310  54.0929310   3.2699310
  25.0109310  53.3009310   3.1729310  17.0479310  38.0969310  11.2109310
  17.4999310  37.5179310  11.8249310  17.6109310  38.1119310  10.4379310
  17.1779310  38.0249310  11.1909310  13.6299310  41.1969310  15.4799310
  13.0639310  41.5579310  14.7979310  13.1339310  41.3129310  16.2899310
  13.4939310  41.2579310  15.4959310  24.8759310  54.8289310  11.3969310
  25.6509310  54.6729310  10.8579310  24.8449310  55.7799310  11.5029310
  24.9709310  54.9309310  11.3419310  21.4459310  51.2409310   5.6259310
  21.2079310  50.4279310   6.0699310  20.6409310  51.5189310   5.1889310
  21.3129310  51.1729310   5.6269310  26.6389310  50.6609310  16.9329310
  26.9089310  49.7569310  17.0929310  25.6869310  50.6479310  17.0339310
  26.5519310  50.5439310  16.9669310  26.9489310  46.3669310  14.6299310
  26.3389310  45.6309310  14.6859310  26.5169310  46.9909310  14.0469310
  26.8159310  46.3519310  14.5629310  16.0469310  46.9549310  13.0549310
  15.5859310  47.2989310  12.2899310  16.1279310  46.0169310  12.8829310
  15.9979310  46.8789310  12.9349310  14.2429310  44.5959310   5.2399310
  15.1989310  44.6279310   5.2669310  13.9719310  45.5129310   5.2779310
  14.3309310  44.7169310   5.2479310  19.0829310  40.0549310  18.1829310
  18.3179310  39.6579310  18.6009310  18.8289310  40.9659310  18.0349310
  18.9519310  40.1209310  18.2179310  15.6019310  37.8859310   3.2109310
  15.9099310  37.9509310   4.1149310  14.6839310  37.6279310   3.2899310
  15.5239310  37.8609310   3.3369310  24.9109310  42.1469310   5.5949310
  25.5309310  42.5909310   5.0159310  24.1009310  42.6509310   5.5099310
  24.8869310  42.2689310   5.5099310  17.2029310  50.2829310   4.8269310
  16.5029310  50.6809310   4.3099310  17.6349310  49.6799310   4.2209310
  17.1689310  50.2569310   4.6829310  25.8039310  48.2259310  12.6489310
  25.6309310  48.1489310  11.7109310  26.5869310  48.7729310  12.7039310
  25.8819310  48.2859310  12.5359310  20.6219310  44.6099310   6.9679310
  21.1359310  44.0099310   6.4279310  20.3479310  45.2999310   6.3639310
  20.6519310  44.6209310   6.8219310  27.6499310  53.1769310  16.2589310
  28.0589310  53.3489310  17.1069310  27.3809310  52.2599310  16.3039310
  27.6679310  53.0819310  16.3729310  26.6639310  37.8389310  14.5269310
  26.3769310  38.6649310  14.9179310  26.4409310  37.9229310  13.5999310
  26.5979310  37.9559310  14.4589310  30.3169310  52.4689310   3.2569310
  30.9039310  52.2919310   2.5219310  29.7259310  53.1489310   2.9329310
  30.3159310  52.5329310   3.1209310  30.1569310  50.8239310  18.2519310
  29.3849310  50.8549310  18.8159310  30.7739310  51.4339310  18.6579310
  30.1369310  50.9059310  18.3769310  30.6789310  39.1749310   7.0129310
  31.2609310  39.6599310   6.4269310  30.1129310  39.8449310   7.3959310
  30.6809310  39.3229310   6.9869310  25.0579310  45.9509310  18.3209310
  24.2469310  45.9889310  17.8139310  25.4219310  45.0879310  18.1259310
  25.0009310  45.8459310  18.2309310  18.3979310  37.9939310   8.8789310
  18.2199310  38.5839310   8.1469310  18.8829310  37.2669310   8.4889310
  18.4369310  37.9769310   8.7359310  12.0029310  44.5839310   7.4559310
  12.5999310  44.8399310   6.7519310  12.3059310  45.0789310   8.2179310
  12.1179310  44.6799310   7.4629310  14.6839310  48.0909310  11.2609310
  14.9429310  48.7839310  10.6529310  13.8119310  48.3499310  11.5599310
  14.6059310  48.2129310  11.2209310  28.3719310  45.6809310   8.2419310
  29.2249310  45.3399310   7.9719310  28.3939310  45.6519310   9.1979310
  28.4839310  45.6329310   8.3289310  21.3019310  42.5919310  16.1469310
  20.5479310  42.2619310  15.6579310  21.1009310  42.3939310  17.0609310
  21.1799310  42.5239310  16.2009310  24.8519310  41.9149310  18.2159310
  24.0679310  41.8759310  18.7639310  25.4889310  41.3639310  18.6699310
  24.8329310  41.8399310  18.3439310  30.4479310  35.7069310   7.7499310
  29.8519310  35.3569310   8.4119310  31.1659310  35.0749310   7.7149310
  30.4639310  35.5819310   7.8299310  26.5179310  46.3519310   3.4569310
  26.9139310  46.6929310   4.2589310  27.0089310  46.7709310   2.7499310
  26.6309310  46.4489310   3.4689310  26.2469310  40.4379310  15.4189310
  26.9399310  40.6319310  16.0509310  25.6109310  41.1439310  15.5369310
  26.2539310  40.5529310  15.5149310  26.7119310  52.7079310  12.8939310
  26.2389310  53.5409310  12.8869310  26.1809310  52.1269310  12.3499310
  26.5829310  52.7399310  12.8239310  18.8239310  18.5119310  70.3179310
  19.0519310  18.4839310  71.2469310  18.1949310  17.7999310  70.2049310
  18.7729310  18.4169310  70.4229310  16.2229310  32.6979310  70.5779310
  15.2689310  32.6299310  70.5459310  16.4119310  33.0049310  71.4639310
  16.1249310  32.7289310  70.6869310  20.9879310  30.1419310  63.7409310
  20.8139310  30.3029310  64.6689310  20.2229310  29.6559310  63.4349310
  20.8679310  30.0999310  63.8209310  16.7399310  16.7979310  69.8239310
  16.1799310  17.2459310  70.4579310  16.5939310  15.8669310  69.9909310
  16.6499310  16.7359310  69.9259310  17.5589310  25.0389310  59.0719310
  17.4049310  25.4959310  59.8989310  18.2709310  24.4289310  59.2639310
  17.6299310  25.0189310  59.2019310  20.9539310  20.2479310  69.6769310
  20.3509310  19.6069310  70.0519310  21.7429310  20.1789310  70.2149310
  20.9779310  20.1579310  69.7939310  14.4459310  31.2949310  64.0349310
  14.4839310  32.1879310  63.6909310  13.6469310  31.2739310  64.5609310
  14.3489310  31.4069310  64.0579310  19.1569310  33.0849310  60.7239310
  18.3579310  32.5579310  60.7339310  19.5009310  32.9819310  59.8369310
  19.0989310  33.0039310  60.6119310  23.3769310  20.0739310  70.9449310
  23.5549310  19.1919310  71.2709310  23.6959310  20.6539310  71.6369310
  23.4409310  20.0349310  71.0759310  23.0649310  28.0699310  63.1909310
  22.6389310  27.4629310  62.5869310  22.4019310  28.7369310  63.3689310
  22.9259310  28.0779310  63.1369310  21.2669310  26.3089310  71.7169310
  21.1389310  25.4439310  72.1059310  21.7099310  26.1339310  70.8859310
  21.3069310  26.1759310  71.6599310  24.1429310  27.2609310  58.7359310
  24.9129310  27.2819310  59.3029310  24.4619310  26.8939310  57.9119310
  24.2819310  27.2169310  58.7029310  12.3909310  20.6389310  70.2739310
  12.6679310  21.2079310  70.9919310  11.7889310  20.0159310  70.6809310
  12.3499310  20.6319310  70.4179310  13.2639310  26.9759310  72.8669310
  12.3429310  26.7559310  72.7269310  13.3439310  27.0829310  73.8139310
  13.1559310  26.9609310  72.9699310  24.8539310  30.6649310  64.0719310
  25.0299310  31.5149310  63.6689310  24.0949310  30.3279310  63.5979310
  24.7799310  30.7309310  63.9599310  24.6439310  33.9899310  65.3239310
  25.2299310  34.7269310  65.1489310  23.8619310  34.1759310  64.8049310
  24.6189310  34.1079310  65.2349310  16.9659310  21.2449310  63.8439310
  16.5589310  21.2439310  62.9769310  16.4799310  21.9079310  64.3349310
  16.8519310  21.3299310  63.7959310  15.0849310  17.6409310  71.8619310
  15.2919310  18.5389310  72.1189310  14.7289310  17.2399310  72.6549310
  15.0659310  17.7039310  71.9959310  16.3929310  18.4319310  62.5619310
  15.6349310  18.4189310  63.1469310  16.9249310  17.6879310  62.8429310
  16.3639310  18.3349310  62.6729310  23.4329310  22.1299310  72.8609310
  24.0189310  22.4429310  73.5499310  22.7069310  22.7549310  72.8609310
  23.4149310  22.2499310  72.9489310  18.1669310  32.2959310  67.0099310
  17.9059310  31.9209310  67.8509310  18.8979310  31.7509310  66.7209310
  18.2269310  32.1779310  67.0799310  16.4049310  30.4889310  65.7249310
  15.6809310  30.7919310  65.1769310  16.9989310  31.2389310  65.7729310
  16.3889310  30.6239310  65.6609310  15.8779310  24.2529310  57.0629310
  15.2749310  24.9899310  56.9669310  16.5069310  24.5429310  57.7239310
  15.8809310  24.3839310  57.1349310  20.3049310  32.7149310  58.3559310
  20.7639310  31.8929310  58.5279310  21.0029310  33.3549310  58.2169310
  20.4529310  32.6919310  58.3599310  19.0279310  23.2059310  67.3379310
  19.9089310  23.4979310  67.5699310  19.1139310  22.8719310  66.4449310
  19.1519310  23.2009310  67.2529310  23.3249310  19.0249310  65.5219310
  22.3729310  18.9619310  65.5929310  23.6529310  18.2969310  66.0499310
  23.2449310  18.9239310  65.5989310  28.4539310  27.0329310  67.6439310
  28.8939310  27.5399310  68.3269310  27.7819310  26.5359310  68.1099310
  28.4249310  27.0339310  67.7909310  29.6689310  28.8009310  69.8719310
  28.9549310  29.4059310  69.6729310  30.3849310  29.3639310  70.1689310
  29.6699310  28.9499310  69.8849310  23.1809310  29.8619310  58.8099310
  23.4849310  28.9689310  58.9659310  23.7079310  30.4019310  59.3989310
  23.2869310  29.8169310  58.9049310  28.4459310  21.1979310  66.7129310
  29.3579310  21.2089310  67.0059310  28.4459310  20.6129310  65.9549310
  28.5629310  21.1239310  66.6539310  26.2909310  25.5349310  68.5639310
  25.4159310  25.2779310  68.2739310  26.6429310  24.7519310  68.9879310
  26.2239310  25.4019310  68.5809310  15.9999310  32.4509310  73.7219310
  15.7479310  33.3549310  73.9129310  16.9049310  32.3859310  74.0249310
  16.0839310  32.5589310  73.7849310  13.2019310  17.4399310  67.2769310
  14.0359310  17.8939310  67.1529310  12.6139310  17.8389310  66.6369310
  13.2339310  17.5489310  67.1799310  29.2979310  19.6529310  74.3669310
  28.3989310  19.3249310  74.3619310  29.6229310  19.4759310  73.4849310
  29.2239310  19.5879310  74.2539310  29.3139310  30.7749310  60.3629310
  29.4349310  31.6499310  59.9949310  29.5229310  30.1809310  59.6419310
  29.3559310  30.8109310  60.2229310  13.7109310  34.2569310  61.5459310
  12.9299310  34.1259310  61.0079310  13.6809310  35.1819310  61.7899310
  13.6069310  34.3589310  61.5079310  23.7619310  30.0589310  73.4969310
  24.3439310  29.8949310  74.2379310  23.1689310  30.7449310  73.8049310
  23.7599310  30.1259310  73.6309310  20.0639310  30.5229310  66.2359310
  19.5839310  29.7149310  66.4129310  20.7939310  30.5089310  66.8549310
  20.0959310  30.4179310  66.3379310  33.4759310  23.4399310  64.6199310
  33.4899310  23.1269310  65.5249310  33.4269310  24.3929310  64.6969310
  33.4719310  23.5219310  64.7459310  19.6069310  23.0239310  70.6229310
  18.7619310  22.7039310  70.9399310  20.0799310  22.2329310  70.3639310
  19.5589310  22.8819310  70.6309310  15.4419310  32.7819310  60.0799310
  14.8599310  33.2799310  60.6529310  15.6709310  33.3929310  59.3799310
  15.3969310  32.9239310  60.0639310  29.3349310  18.8909310  71.7979310
  28.4689310  18.7269310  71.4269310  29.9169310  18.2989310  71.3199310
  29.2989310  18.7939310  71.6889310  18.7959310  27.2499310  71.9849310
  19.6759310  26.8769310  71.9329310  18.2579310  26.6689310  71.4479310
  18.8399310  27.1279310  71.9099310  27.7849310  30.9609310  70.3419310
  27.4339310  30.8579310  71.2269310  27.9329310  31.9029310  70.2519310
  27.7589310  31.0679310  70.4439310  29.9219310  32.7279310  72.2209310
  30.1199310  32.3329310  73.0709310  29.2509310  33.3829310  72.4119310
  29.8609310  32.7609310  72.3539310  25.2399310  25.5069310  71.6339310
  24.6829310  25.1129310  70.9619310  24.6639310  26.1169310  72.0939310
  25.0949310  25.5349310  71.6069310  16.0789310  25.0849310  69.2599310
  15.7019310  24.9579310  70.1299310  15.5159310  24.5739310  68.6779310
  15.9589310  25.0039310  69.2969310  25.0859310  26.5949310  64.7149310
  25.6309310  27.0959310  65.3219310  24.3919310  27.2019310  64.4579310
  25.0669310  26.7359310  64.7599310  13.0689310  28.1609310  65.5359310
  13.4629310  28.0909310  64.6659310  13.6809310  27.7059310  66.1129310
  13.1979310  28.0939310  65.4979310  23.7259310  33.6839310  70.5049310
  23.1769310  33.6149310  69.7249310  24.0899310  32.8069310  70.6209310
  23.7029310  33.5629310  70.4199310  17.2049310  22.0059310  69.3019310
  16.6149310  21.2669310  69.1499310  17.8169310  21.9779310  68.5669310
  17.2079310  21.9079310  69.1879310  18.5899310  28.1979310  67.3339310
  18.5499310  27.2429310  67.2969310  18.1349310  28.4259310  68.1439310
  18.5269310  28.1049310  67.4329310  26.5549310  24.8509310  74.0159310
  25.8639310  24.2109310  74.1839310  26.3469310  25.2069310  73.1529310
  26.4399310  24.8139310  73.9269310  12.1729310  23.9529310  61.1529310
  12.8379310  24.5529310  61.4909310  11.3409310  24.3869310  61.3419310
  12.1519310  24.0849310  61.2209310  14.5059310  28.3979310  63.3549310
  15.1849310  28.1179310  63.9689310  14.6039310  29.3479310  63.3059310
  14.6049310  28.4839310  63.4279310  14.1759310  18.5889310  64.1199310
  13.9379310  17.7699310  63.6859310  13.4149310  19.1569310  63.9929310
  14.0479310  18.5569310  64.0479310  18.7469310  17.4039310  60.1239310
  18.9919310  16.5289310  60.4249310  18.5319310  17.8809310  60.9249310
  18.7509310  17.3529310  60.2649310  22.4329310  30.8089310  67.7439310
  22.3689310  30.2889310  68.5459310  22.9779310  31.5579310  67.9869310
  22.4939310  30.8379310  67.8779310  27.9319310  29.7049310  64.3629310
  27.0169310  29.7149310  64.0799310  28.0539310  28.8369310  64.7479310
  27.8299310  29.5949310  64.3759310  17.5539310  26.0219310  61.4469310
  18.3769310  26.5079310  61.4089310  17.6049310  25.5269310  62.2639310
  17.6659310  26.0209310  61.5459310  14.2449310  33.8969310  65.5229310
  13.7029310  34.3199310  66.1899310  15.1439310  34.0939310  65.7849310
  14.2899310  33.9769310  65.6419310  19.8489310  27.6589310  61.4489310
  19.3259310  28.3619310  61.8349310  19.8609310  27.8549310  60.5129310
  19.7839310  27.7739310  61.3789310  15.7859310  27.9619310  72.4429310
  15.7479310  28.2789310  71.5409310  14.9139310  27.6029310  72.6079310
  15.6689310  27.9559310  72.3489310  19.6939310  29.7019310  71.0179310
  18.9109310  30.1079310  70.6489310  19.4059310  28.8309310  71.2909310
  19.5569310  29.6419310  71.0059310  13.4319310  31.7139310  67.7609310
  14.0869310  32.0749310  67.1639310  12.7539310  31.3589310  67.1859310
  13.4289310  31.7149310  67.6109310  28.7439310  13.6059310  67.0119310
  28.8899310  14.0109310  67.8669310  27.7989310  13.6739310  66.8729310
  28.6419310  13.6659310  67.1039310  18.7199310  25.6589310  69.4969310
  19.0449310  24.8559310  69.9039310  17.8509310  25.4269310  69.1709310
  18.6499310  25.5269310  69.5069310  13.4209310  27.5239310  58.9249310
  14.1879310  27.2009310  59.3999310  12.6789310  27.2849310  59.4799310
  13.4239310  27.4519310  59.0569310  29.5199310  34.5129310  66.7939310
  29.3729310  33.5699310  66.8749310  30.1739310  34.7109310  67.4649310
  29.5849310  34.4169310  66.8899310  30.8529310  30.7909310  65.5799310
  30.0089310  31.2039310  65.7639310  30.7209310  29.8689310  65.7979310
  30.7279310  30.7259310  65.6309310  12.7589310  21.2799310  67.6209310
  13.5569310  20.9299310  67.2259310  12.7389310  20.8999310  68.4989310
  12.8579310  21.1859310  67.6829310  22.1529310  24.3369310  65.3489310
  21.7459310  25.0969310  64.9329310  23.0149310  24.2719310  64.9389310
  22.2109310  24.4259310  65.2429310  14.8439310  26.0669310  66.3339310
  15.8009310  26.0509310  66.3149310  14.5989310  25.2529310  66.7739310
  14.9349310  25.9609310  66.3879310  25.1469310  20.0769310  68.8729310
  24.6929310  20.5189310  68.1549310  24.6049310  20.2519310  69.6419310
  25.0199310  20.1559310  68.8789310  30.3119310  25.0049310  67.8169310
  29.9229310  24.5309310  68.5529310  29.7769310  25.7939310  67.7309310
  30.1939310  25.0449310  67.8999310  23.6859310  21.5529310  66.6829310
  24.3119310  22.0029310  66.1159310  23.5439310  20.7059310  66.2589310
  23.7479310  21.5019310  66.5559310  22.2209310  29.4299310  70.1819310
  22.6139310  30.2509310  70.4779310  21.3079310  29.4849310  70.4639310
  22.1549310  29.5419310  70.2559310  16.2449310  21.5909310  61.1559310
  16.1549310  21.3199310  60.2429310  15.3469310  21.7479310  61.4489310
  16.1179310  21.5769310  61.0769310  27.4449310  22.7139310  69.3309310
  27.1799310  22.0619310  69.9809310  27.6639310  22.2009310  68.5529310
  27.4389310  22.5649310  69.3149310  18.1909310  24.5069310  63.5559310
  18.3789310  23.7549310  62.9939310  19.0469310  24.8979310  63.7259310
  18.3239310  24.4609310  63.5059310  19.8469310  19.3669310  72.7959310
  20.7689310  19.4429310  73.0399310  19.3949310  19.9839310  73.3709310
  19.9069310  19.4549310  72.8999310  16.8379310  16.3769310  65.7149310
  17.0089310  17.2979310  65.9139310  17.4039310  15.8929310  66.3159310
  16.9319310  16.4329310  65.8169310  20.6409310  29.7139310  57.8389310
  21.4849310  29.6759310  58.2899310  20.8639310  29.9189310  56.9309310
  20.7779310  29.7349310  57.7809310  17.6919310  25.5039310  66.1079310
  17.9489310  25.0859310  65.2859310  17.7759310  24.8119310  66.7639310
  17.7359310  25.3619310  66.0869310  25.0039310  29.9589310  66.5669310
  25.1019310  30.2059310  65.6469310  24.1499310  30.3089310  66.8189310
  24.9069310  30.0349310  66.4819310  22.3939310  34.3729310  63.9059310
  22.2089310  33.5459310  63.4599310  22.0819310  35.0459310  63.3009310
  22.3299310  34.3529310  63.7709310  26.0919310  32.3849310  67.1059310
  25.5479310  32.9849310  66.5949310  25.7009310  31.5239310  66.9599310
  25.9729310  32.3519310  67.0219310  29.8669310  23.7939310  70.7289310
  28.9709310  23.4689310  70.6419310  29.7669310  24.6889310  71.0539310
  29.7389310  23.8669310  70.7599310  20.1839310  34.7529310  66.0789310
  20.1499310  34.0659310  66.7439310  20.6599310  34.3579310  65.3489310
  20.2399310  34.6149310  66.0709310  21.6949310  22.8619310  67.8829310
  21.2459310  22.1079310  68.2649310  22.4169310  22.4819310  67.3829310
  21.7299310  22.7169310  67.8679310  23.2299310  26.9859310  69.5949310
  22.9539310  27.8099310  69.9969310  24.1809310  26.9729310  69.7039310
  23.3169310  27.0899310  69.6599310  18.7179310  19.5989310  61.8659310
  18.5699310  20.5419310  61.7879310  17.9259310  19.2669310  62.2899310
  18.5979310  19.6769310  61.9099310  22.5859310  34.2089310  67.8439310
  23.3759310  34.7469310  67.7899310  21.9859310  34.6009310  67.2099310
  22.6099310  34.3279310  67.7559310  14.6159310  24.8339310  71.7319310
  13.9369310  25.4729310  71.9519310  14.2069310  23.9849310  71.8949310
  14.4759310  24.8069310  71.7809310  25.5759310  32.8389310  62.6959310
  25.2079310  33.4199310  63.3609310  26.4669310  33.1619310  62.5619310
  25.6429310  32.9549310  62.7639310  12.7639310  17.7429310  70.3139310
  13.6259310  17.7039310  70.7279310  12.9499310  17.8929310  69.3869310
  12.8979310  17.7569310  70.2479310  23.6809310  25.2759310  67.6809310
  23.4129310  25.9189310  68.3379310  22.8819310  25.0939310  67.1849310
  23.5439310  25.3349310  67.7009310  13.5789310  21.8149310  62.3439310
  13.9789310  22.3999310  62.9879310  13.1149310  22.3999310  61.7449310
  13.5709310  21.9649310  62.3499310  23.6579310  23.6099310  70.2429310
  23.4949310  23.9189310  69.3519310  22.7969310  23.3459310  70.5659310
  23.5269310  23.6159310  70.1709310  23.8799310  17.8309310  74.3809310
  23.8769310  17.5409310  73.4689310  23.2079310  18.5119310  74.4179310
  23.7929310  17.8809310  74.2689310  15.5389310  16.4939310  58.3889310
  15.5399310  17.2359310  58.9929310  16.0429310  16.7979310  57.6349310
  15.6039310  16.6279310  58.3699310  16.4549310  28.5299310  58.6729310
  16.5409310  28.4789310  57.7209310  15.9019310  29.2979310  58.8219310
  16.3949310  28.6219310  58.5699310  23.5899310  27.2729310  72.7789310
  22.7719310  27.1169310  72.3079310  23.6379310  28.2249310  72.8679310
  23.4919310  27.3749310  72.7299310  27.9399310  21.9689310  74.0099310
  28.6529310  21.3369310  74.1049310  28.3799310  22.8059310  73.8639310
  28.0869310  21.9949310  74.0029310  13.9689310  23.7509310  67.5319310
  13.1899310  24.2569310  67.7629310  13.7069310  22.8379310  67.6549310
  13.8359310  23.6989310  67.5769310  29.4129310  33.2459310  69.5789310
  29.6949310  33.1499310  70.4889310  28.6319310  33.7969310  69.6279310
  29.3489310  33.3039310  69.7019310  17.0649310  27.9079310  64.6379310
  16.9779310  28.6879310  65.1869310  17.1369310  27.1839310  65.2609310
  17.0629310  27.9149310  64.7879310  12.6959310  18.9919310  59.8429310
  12.6389310  18.7379310  58.9219310  12.1479310  19.7739310  59.9109310
  12.6189310  19.0599310  59.7339310  17.1669310  23.0489310  71.8219310
  17.0759310  22.9289310  70.8769310  16.4429310  23.6269310  72.0599310
  17.0629310  23.1079310  71.7309310  18.2489310  16.5649310  63.2739310
  17.8439310  16.2339310  64.0759310  18.3559310  15.7909310  62.7219310
  18.2109310  16.4239310  63.3059310  29.3339310  32.0239310  63.0139310
  29.4039310  31.3949310  63.7309310  29.3999310  31.4919310  62.2209310
  29.3509310  31.8759310  63.0039310  18.4909310  29.7679310  59.5939310
  17.7589310  29.2789310  59.2179310  19.1509310  29.7809310  58.9019310
  18.4809310  29.7069310  59.4579310  13.4369310  33.1129310  70.1649310
  13.1439310  32.8399310  69.2949310  13.1289310  34.0149310  70.2489310
  13.3599310  33.1929310  70.0639310  15.8089310  20.1759310  72.7359310
  16.5999310  20.2089310  72.1989310  15.4489310  21.0619310  72.6879310
  15.8639310  20.2929310  72.6609310  26.9649310  18.4289310  74.2049310
  27.0259310  18.0819310  73.3149310  26.0249310  18.4769310  74.3789310
  26.8519310  18.3909310  74.1129310  17.3519310  30.4769310  69.5629310
  16.7819310  31.1639310  69.9099310  16.8999310  29.6609310  69.7769310
  17.2209310  30.4609310  69.6349310  23.9439310  32.0579310  60.6539310
  23.2589310  31.9859310  61.3189310  24.7419310  32.2359310  61.1509310
  23.9579310  32.0709310  60.8029310  27.0819310  17.4019310  66.5059310
  27.9529310  17.0089310  66.5629310  26.9829310  17.6329310  65.5829310
  27.1809310  17.3809310  66.3949310  23.9899310  17.6689310  71.6399310
  23.7299310  16.8929310  71.1429310  24.9459310  17.6739310  71.5919310
  24.0789310  17.5699310  71.5699310  20.9099310  19.8169310  66.9209310
  20.0589310  19.3859310  66.8339310  21.0089310  19.9639310  67.8619310
  20.8129310  19.7809310  67.0299310  18.3319310  29.3509310  62.7569310
  17.6959310  28.8959310  63.3079310  17.8439310  30.0849310  62.3839310
  18.1889310  29.3869310  62.7799310  24.2099310  31.0219310  70.9619310
  24.0069310  30.7119310  71.8439310  24.7239310  30.3139310  70.5719310
  24.2499310  30.8909310  71.0249310  26.8549310  28.6239310  73.6089310
  26.2149310  28.0909310  74.0809310  26.8169310  28.3009310  72.7079310
  26.7679310  28.5139310  73.5539310  20.6219310  30.9919310  73.7439310
  20.2349310  30.6269310  72.9479310  19.9739310  31.6209310  74.0589310
  20.4889310  31.0249310  73.6829310  12.9819310  30.3459310  71.1129310
  12.5999310  31.1889310  71.3569310  13.8059310  30.5719310  70.6819310
  13.0379310  30.4829310  71.0889310  14.8849310  19.9719310  66.5349310
  14.7909310  19.5049310  65.7049310  15.7079310  19.6489310  66.8999310
  14.9779310  19.8709310  66.4759310  29.5219310  26.4609310  71.4259310
  28.6309310  26.6769310  71.7039310  29.7989310  27.2139310  70.9039310
  29.4429310  26.5849310  71.3949310  28.5899310  28.4829310  61.8579310
  28.6119310  28.5989310  62.8079310  28.7629310  29.3559310  61.5069310
  28.6149310  28.6099310  61.9349310  27.9649310  34.4229310  62.1649310
  27.7009310  34.3879310  61.2459310  28.5869310  33.7019310  62.2639310
  28.0109310  34.3259310  62.0599310  25.1389310  34.4189310  59.6759310
  24.6229310  33.7339310  60.1019310  24.6559310  35.2259310  59.8499310
  25.0109310  34.4339310  59.7529310  17.0479310  19.2299310  67.7909310
  17.4999310  18.6509310  68.4049310  17.6109310  19.2449310  67.0179310
  17.1779310  19.1579310  67.7709310  13.6299310  22.3299310  72.0599310
  13.0639310  22.6909310  71.3779310  13.1339310  22.4459310  72.8699310
  13.4939310  22.3909310  72.0759310  24.8759310  35.9619310  67.9769310
  25.6509310  35.8059310  67.4379310  24.8449310  36.9129310  68.0829310
  24.9709310  36.0639310  67.9219310  21.4459310  32.3739310  62.2059310
  21.2079310  31.5609310  62.6499310  20.6409310  32.6519310  61.7689310
  21.3129310  32.3059310  62.2069310  26.6389310  31.7939310  73.5129310
  26.9089310  30.8899310  73.6729310  25.6869310  31.7809310  73.6139310
  26.5519310  31.6769310  73.5469310  26.9489310  27.4999310  71.2099310
  26.3389310  26.7639310  71.2659310  26.5169310  28.1239310  70.6269310
  26.8159310  27.4849310  71.1429310  16.0469310  28.0879310  69.6349310
  15.5859310  28.4319310  68.8699310  16.1279310  27.1499310  69.4629310
  15.9979310  28.0119310  69.5149310  14.2429310  25.7289310  61.8199310
  15.1989310  25.7609310  61.8469310  13.9719310  26.6459310  61.8579310
  14.3309310  25.8499310  61.8279310  15.6019310  19.0189310  59.7909310
  15.9099310  19.0839310  60.6949310  14.6839310  18.7609310  59.8699310
  15.5239310  18.9939310  59.9169310  11.5309310  29.3319310  58.1359310
  12.1589310  28.8089310  58.6349310  12.0249310  29.6379310  57.3749310
  11.6749310  29.3039310  58.1029310  17.2029310  31.4159310  61.4069310
  16.5029310  31.8139310  60.8899310  17.6349310  30.8129310  60.8009310
  17.1689310  31.3899310  61.2629310  25.8039310  29.3589310  69.2289310
  25.6309310  29.2819310  68.2909310  26.5869310  29.9059310  69.2839310
  25.8819310  29.4189310  69.1159310  27.6499310  34.3099310  72.8389310
  28.0589310  34.4819310  73.6869310  27.3809310  33.3929310  72.8839310
  27.6679310  34.2149310  72.9529310  26.6639310  18.9719310  71.1069310
  26.3769310  19.7979310  71.4979310  26.4409310  19.0559310  70.1799310
  26.5979310  19.0889310  71.0389310  30.3169310  33.6019310  59.8369310
  30.9039310  33.4249310  59.1019310  29.7259310  34.2819310  59.5129310
  30.3159310  33.6659310  59.7009310  13.1089310  33.0979310  57.5939310
  13.6659310  32.3389310  57.7659310  13.6769310  33.8519310  57.7499310
  13.2529310  33.0969310  57.6359310  30.6789310  20.3079310  63.5929310
  31.2609310  20.7929310  63.0069310  30.1129310  20.9779310  63.9759310
  30.6809310  20.4559310  63.5669310  18.3979310  19.1269310  65.4589310
  18.2199310  19.7169310  64.7269310  18.8829310  18.3999310  65.0689310
  18.4369310  19.1099310  65.3159310  12.0029310  25.7169310  64.0359310
  12.5999310  25.9729310  63.3319310  12.3059310  26.2119310  64.7979310
  12.1179310  25.8129310  64.0429310  14.6839310  29.2239310  67.8409310
  14.9429310  29.9169310  67.2329310  13.8119310  29.4829310  68.1399310
  14.6059310  29.3459310  67.8009310  28.3719310  26.8139310  64.8219310
  29.2249310  26.4729310  64.5519310  28.3939310  26.7849310  65.7779310
  28.4839310  26.7659310  64.9089310  21.3019310  23.7249310  72.7269310
  20.5479310  23.3949310  72.2379310  21.1009310  23.5269310  73.6409310
  21.1799310  23.6569310  72.7809310  30.4479310  16.8399310  64.3299310
  29.8519310  16.4899310  64.9919310  31.1659310  16.2079310  64.2949310
  30.4639310  16.7149310  64.4099310  26.5179310  27.4849310  60.0369310
  26.9139310  27.8259310  60.8389310  27.0089310  27.9039310  59.3299310
  26.6309310  27.5819310  60.0489310  26.2469310  21.5709310  71.9989310
  26.9399310  21.7649310  72.6309310  25.6109310  22.2769310  72.1169310
  26.2539310  21.6859310  72.0949310  26.7119310  33.8409310  69.4739310
  26.2389310  34.6739310  69.4669310  26.1809310  33.2599310  68.9299310
  26.5829310  33.8729310  69.4039310  20.9879310  30.1419310  44.8809310
  20.8139310  30.3029310  45.8089310  20.2229310  29.6559310  44.5749310
  20.8679310  30.0999310  44.9609310  17.5589310  25.0389310  40.2119310
  17.4049310  25.4959310  41.0389310  18.2709310  24.4289310  40.4039310
  17.6299310  25.0189310  40.3419310  14.4459310  31.2949310  45.1749310
  14.4839310  32.1879310  44.8309310  13.6469310  31.2739310  45.7009310
  14.3489310  31.4069310  45.1979310  23.0649310  28.0699310  44.3309310
  22.6389310  27.4629310  43.7269310  22.4019310  28.7369310  44.5089310
  22.9259310  28.0779310  44.2769310  21.0319310  19.1209310  39.5729310
  20.7659310  18.6579310  40.3679310  21.0479310  18.4439310  38.8969310
  20.9999310  18.9749310  39.5889310  24.1429310  27.2609310  39.8759310
  24.9129310  27.2819310  40.4429310  24.4619310  26.8939310  39.0519310
  24.2819310  27.2169310  39.8429310  13.2639310  26.9759310  54.0069310
  12.3429310  26.7559310  53.8669310  13.3439310  27.0829310  54.9539310
  13.1559310  26.9609310  54.1099310  16.3929310  18.4319310  43.7019310
  15.6349310  18.4189310  44.2869310  16.9249310  17.6879310  43.9829310
  16.3639310  18.3349310  43.8129310  21.0529310  22.6309310  43.5329310
  20.2279310  22.6129310  43.0479310  20.8019310  22.4449310  44.4379310
  20.9149310  22.6049310  43.5869310  12.9539310  20.6429310  57.0549310
  12.7559310  20.7239310  56.1229310  12.1599310  20.9459310  57.4959310
  12.8269310  20.6919310  56.9919310  15.8779310  24.2529310  38.2029310
  15.2749310  24.9899310  38.1069310  16.5069310  24.5429310  38.8639310
  15.8809310  24.3839310  38.2749310  12.9219310  29.6689310  55.8119310
  12.1599310  30.2369310  55.6949310  13.1269310  29.3589310  54.9299310
  12.8499310  29.7019310  55.6839310  14.9929310  30.9639310  57.1489310
  15.4759310  31.5249310  56.5419310  14.5499310  30.3279310  56.5879310
  14.9979310  30.9549310  56.9999310  18.6189310  32.6999310  55.9469310
  19.1929310  32.6129310  56.7079310  18.5769310  33.6419310  55.7849310
  18.6869310  32.8089310  56.0229310  18.9739310  26.5539310  55.8479310
  18.8169310  25.6099310  55.8119310  18.8849310  26.8459310  54.9409310
  18.9419310  26.4699310  55.7269310  23.1809310  29.8619310  39.9499310
  23.4849310  28.9689310  40.1059310  23.7079310  30.4019310  40.5389310
  23.2869310  29.8169310  40.0449310  15.9999310  32.4509310  54.8619310
  15.7479310  33.3549310  55.0529310  16.9049310  32.3859310  55.1649310
  16.0839310  32.5589310  54.9249310  18.0329310  17.5239310  38.5129310
  18.3749310  17.5329310  39.4069310  17.5479310  18.3459310  38.4349310
  18.0149310  17.6309310  38.6169310  27.7319310  16.1739310  40.3809310
  27.8599310  17.0889310  40.1289310  26.7829310  16.0789310  40.4659310
  27.6269310  16.2789310  40.3599310  22.8689310  21.3759310  39.6429310
  22.2429310  20.6519310  39.6669310  23.0869310  21.5349310  40.5609310
  22.8169310  21.3039310  39.7629310  16.5339310  28.2099310  56.0969310
  17.3449310  27.7219310  55.9549310  16.2649310  28.4869310  55.2209310
  16.6029310  28.1829310  55.9659310  29.1539310  24.7679310  55.9679310
  28.3309310  25.1079310  55.6189310  29.0099310  24.7119310  56.9129310
  29.0309310  24.8039310  56.0439310  23.0669310  21.4939310  42.3069310
  22.2439310  21.7769310  42.7029310  23.7449310  21.8799310  42.8619310
  23.0489310  21.5789310  42.4289310  12.1729310  23.9529310  42.2929310
  12.8379310  24.5529310  42.6309310  11.3409310  24.3869310  42.4819310
  12.1519310  24.0849310  42.3609310  14.5059310  28.3979310  44.4949310
  15.1849310  28.1179310  45.1089310  14.6039310  29.3479310  44.4459310
  14.6049310  28.4839310  44.5679310  19.9199310  27.1339310  39.5819310
  19.5369310  26.8249310  38.7609310  20.1589310  28.0449310  39.4069310
  19.9019310  27.2109310  39.4549310  18.7469310  17.4039310  41.2639310
  18.9919310  16.5289310  41.5649310  18.5319310  17.8809310  42.0649310
  18.7509310  17.3529310  41.4049310  23.9789310  19.1529310  43.8019310
  23.6849310  19.8679310  43.2379310  23.7079310  19.4139310  44.6819310
  23.9069310  19.2779310  43.8419310  15.5849310  21.6689310  39.2979310
  14.6599310  21.4259310  39.3359310  15.5809310  22.5889310  39.0329310
  15.4669310  21.7559310  39.2689310  17.5539310  26.0219310  42.5869310
  18.3769310  26.5079310  42.5489310  17.6049310  25.5269310  43.4039310
  17.6659310  26.0209310  42.6859310  19.8489310  27.6589310  42.5889310
  19.3259310  28.3619310  42.9749310  19.8609310  27.8549310  41.6529310
  19.7839310  27.7739310  42.5189310  28.7439310  13.6059310  48.1519310
  28.8899310  14.0109310  49.0069310  27.7989310  13.6739310  48.0129310
  28.6419310  13.6659310  48.2439310  14.3359310  26.5929310  56.6059310
  15.1389310  27.1029310  56.4959310  13.8859310  27.0109310  57.3399310
  14.3809310  26.7119310  56.6859310  19.4569310  22.4869310  39.6069310
  18.9759310  21.6699310  39.4759310  19.8909310  22.6459310  38.7689310
  19.4509310  22.4029310  39.4829310  13.4209310  27.5239310  40.0649310
  14.1879310  27.2009310  40.5399310  12.6789310  27.2849310  40.6199310
  13.4239310  27.4519310  40.1969310  23.7099310  18.2979310  40.5789310
  22.9509310  18.5459310  40.0509310  24.2649310  19.0779310  40.5799310
  23.6839310  18.4299310  40.5119310  16.2449310  21.5909310  42.2959310
  16.1549310  21.3199310  41.3829310  15.3469310  21.7479310  42.5889310
  16.1179310  21.5769310  42.2169310  25.8319310  17.4819310  45.0919310
  25.1699310  17.8879310  44.5319310  26.5269310  17.2189310  44.4889310
  25.8359310  17.5009310  44.9429310  20.6409310  29.7139310  38.9789310
  21.4849310  29.6759310  39.4299310  20.8639310  29.9189310  38.0709310
  20.7779310  29.7349310  38.9209310  20.1839310  34.7529310  47.2189310
  20.1499310  34.0659310  47.8839310  20.6599310  34.3579310  46.4889310
  20.2399310  34.6149310  47.2109310  22.0629310  25.4809310  39.9069310
  22.7929310  26.1009310  39.8959310  21.2809310  26.0319310  39.8759310
  22.0559310  25.6309310  39.9009310  18.7179310  19.5989310  43.0059310
  18.5699310  20.5419310  42.9279310  17.9259310  19.2669310  43.4299310
  18.5979310  19.6769310  43.0499310  17.9739310  20.0879310  39.6009310
  17.0569310  19.8729310  39.7669310  18.4489310  19.6999310  40.3359310
  17.9169310  20.0109310  39.7159310  12.2229310  22.9139310  55.4409310
  11.6229310  23.6469310  55.5819310  12.7699310  22.8969310  56.2269310
  12.2159310  23.0059310  55.5599310  13.5789310  21.8149310  43.4839310
  13.9789310  22.3999310  44.1279310  13.1149310  22.3999310  42.8849310
  13.5709310  21.9649310  43.4899310  15.5389310  16.4939310  39.5289310
  15.5399310  17.2359310  40.1329310  16.0429310  16.7979310  38.7749310
  15.6039310  16.6279310  39.5099310  16.4549310  28.5299310  39.8129310
  16.5409310  28.4789310  38.8609310  15.9019310  29.2979310  39.9619310
  16.3949310  28.6219310  39.7099310  17.0649310  27.9079310  45.7779310
  16.9779310  28.6879310  46.3269310  17.1369310  27.1839310  46.4009310
  17.0629310  27.9149310  45.9279310  12.6959310  18.9919310  40.9829310
  12.6389310  18.7379310  40.0619310  12.1479310  19.7739310  41.0509310
  12.6189310  19.0599310  40.8739310  18.2489310  16.5649310  44.4139310
  17.8439310  16.2339310  45.2159310  18.3559310  15.7909310  43.8619310
  18.2109310  16.4239310  44.4459310  18.7919310  22.6109310  42.2999310
  19.1649310  22.5459310  41.4209310  17.8869310  22.3149310  42.1989310
  18.7239310  22.5639310  42.1749310  18.4909310  29.7679310  40.7339310
  17.7589310  29.2789310  40.3579310  19.1509310  29.7809310  40.0419310
  18.4809310  29.7069310  40.5979310  20.9369310  19.5079310  44.6849310
  20.0849310  19.3699310  44.2729310  20.9869310  20.4549310  44.8209310
  20.8349310  19.6119310  44.6499310  13.4369310  33.1129310  51.3049310
  13.1439310  32.8399310  50.4349310  13.1289310  34.0149310  51.3889310
  13.3599310  33.1929310  51.2039310  21.9819310  23.1789310  37.9239310
  21.9629310  23.8289310  38.6259310  22.3369310  22.3909310  38.3359310
  22.0249310  23.1619310  38.0659310  21.6549310  17.6819310  42.7759310
  21.4299310  18.4669310  43.2749310  22.5539310  17.8339310  42.4839310
  21.7419310  17.8019310  42.8029310  18.3319310  29.3509310  43.8969310
  17.6959310  28.8959310  44.4479310  17.8439310  30.0849310  43.5239310
  18.1889310  29.3869310  43.9199310  12.9819310  30.3459310  52.2529310
  12.5999310  31.1889310  52.4969310  13.8059310  30.5719310  51.8219310
  13.0379310  30.4829310  52.2289310  14.2429310  25.7289310  42.9599310
  15.1989310  25.7609310  42.9869310  13.9719310  26.6459310  42.9979310
  14.3309310  25.8499310  42.9679310  15.6019310  19.0189310  40.9309310
  15.9099310  19.0839310  41.8349310  14.6839310  18.7609310  41.0099310
  15.5239310  18.9939310  41.0569310  11.5309310  29.3319310  39.2759310
  12.1589310  28.8089310  39.7749310  12.0249310  29.6379310  38.5149310
  11.6749310  29.3039310  39.2429310  20.6219310  25.7429310  44.6879310
  21.1359310  25.1429310  44.1479310  20.3479310  26.4329310  44.0839310
  20.6519310  25.7539310  44.5419310  13.1089310  33.0979310  38.7339310
  13.6659310  32.3389310  38.9059310  13.6769310  33.8519310  38.8899310
  13.2529310  33.0969310  38.7759310  25.0579310  27.0839310  56.0409310
  24.2469310  27.1219310  55.5339310  25.4219310  26.2209310  55.8459310
  25.0009310  26.9789310  55.9509310  12.0029310  25.7169310  45.1759310
  12.5999310  25.9729310  44.4719310  12.3059310  26.2119310  45.9379310
  12.1179310  25.8129310  45.1829310  14.6839310  29.2239310  48.9809310
  14.9429310  29.9169310  48.3729310  13.8119310  29.4829310  49.2799310
  14.6059310  29.3459310  48.9409310  18.8239310  18.5119310  32.5979310
  19.0519310  18.4839310  33.5269310  18.1949310  17.7999310  32.4849310
  18.7729310  18.4169310  32.7029310  16.2229310  32.6979310  32.8579310
  15.2689310  32.6299310  32.8259310  16.4119310  33.0049310  33.7439310
  16.1249310  32.7289310  32.9669310  20.9879310  30.1419310  26.0209310
  20.8139310  30.3029310  26.9489310  20.2229310  29.6559310  25.7149310
  20.8679310  30.0999310  26.1009310  16.7399310  16.7979310  32.1039310
  16.1799310  17.2459310  32.7379310  16.5939310  15.8669310  32.2709310
  16.6499310  16.7359310  32.2059310  17.5589310  25.0389310  21.3519310
  17.4049310  25.4959310  22.1789310  18.2709310  24.4289310  21.5439310
  17.6299310  25.0189310  21.4819310  20.9539310  20.2479310  31.9569310
  20.3509310  19.6069310  32.3319310  21.7429310  20.1789310  32.4949310
  20.9779310  20.1579310  32.0739310  21.4919310  16.6849310  38.2349310
  22.3839310  16.4559310  37.9709310  20.9699310  16.5639310  37.4419310
  21.5399310  16.6409310  38.0999310  27.7199310  31.1979310  19.5379310
  26.8579310  31.5259310  19.2819310  27.6239310  30.2459310  19.5369310
  27.5969310  31.1179310  19.5049310  14.4459310  31.2949310  26.3149310
  14.4839310  32.1879310  25.9709310  13.6469310  31.2739310  26.8409310
  14.3489310  31.4069310  26.3379310  19.1569310  33.0849310  23.0039310
  18.3579310  32.5579310  23.0139310  19.5009310  32.9819310  22.1169310
  19.0989310  33.0039310  22.8919310  23.3769310  20.0739310  33.2249310
  23.5549310  19.1919310  33.5509310  23.6959310  20.6539310  33.9169310
  23.4409310  20.0349310  33.3559310  23.0649310  28.0699310  25.4709310
  22.6389310  27.4629310  24.8669310  22.4019310  28.7369310  25.6489310
  22.9259310  28.0779310  25.4169310  28.8169310  18.7019310  24.7239310
  28.8849310  17.7549310  24.5999310  29.6859310  18.9669310  25.0249310
  28.9369310  18.6149310  24.7469310  29.9359310  22.9929310  26.5649310
  29.1569310  23.1029310  27.1099310  30.2799310  23.8789310  26.4559310
  29.8799310  23.1199310  26.6209310  21.0319310  19.1209310  20.7129310
  20.7659310  18.6579310  21.5079310  21.0479310  18.4439310  20.0369310
  20.9999310  18.9749310  20.7289310  21.2669310  26.3089310  33.9969310
  21.1389310  25.4439310  34.3859310  21.7099310  26.1339310  33.1659310
  21.3069310  26.1759310  33.9399310  24.1429310  27.2609310  21.0159310
  24.9129310  27.2819310  21.5829310  24.4619310  26.8939310  20.1919310
  24.2819310  27.2169310  20.9829310  29.8789310  26.8979310  22.7459310
  29.5129310  27.5389310  23.3559310  29.1139310  26.4759310  22.3539310
  29.7339310  26.9259310  22.7739310  12.3909310  20.6389310  32.5539310
  12.6679310  21.2079310  33.2719310  11.7889310  20.0159310  32.9609310
  12.3499310  20.6319310  32.6979310  27.8609310  28.4979310  19.7629310
  27.9029310  28.3639310  18.8159310  28.7469310  28.7649310  20.0059310
  27.9799310  28.5149310  19.6729310  13.2639310  26.9759310  35.1469310
  12.3429310  26.7559310  35.0069310  13.3439310  27.0829310  36.0939310
  13.1559310  26.9609310  35.2499310  28.2039310  18.9279310  21.8509310
  28.3359310  18.7839310  22.7879310  27.3359310  19.3269310  21.7909310
  28.1099310  18.9599310  21.9639310  24.8539310  30.6649310  26.3519310
  25.0299310  31.5149310  25.9489310  24.0949310  30.3279310  25.8779310
  24.7799310  30.7309310  26.2399310  24.6439310  33.9899310  27.6039310
  25.2299310  34.7269310  27.4289310  23.8619310  34.1759310  27.0849310
  24.6189310  34.1079310  27.5149310  16.9659310  21.2449310  26.1239310
  16.5589310  21.2439310  25.2569310  16.4799310  21.9079310  26.6149310
  16.8519310  21.3299310  26.0759310  15.0849310  17.6409310  34.1419310
  15.2919310  18.5389310  34.3989310  14.7289310  17.2399310  34.9349310
  15.0659310  17.7039310  34.2759310  16.3929310  18.4319310  24.8419310
  15.6349310  18.4189310  25.4269310  16.9249310  17.6879310  25.1229310
  16.3639310  18.3349310  24.9529310  23.4329310  22.1299310  35.1409310
  24.0189310  22.4429310  35.8299310  22.7069310  22.7549310  35.1409310
  23.4149310  22.2499310  35.2289310  21.0529310  22.6309310  24.6729310
  20.2279310  22.6129310  24.1879310  20.8019310  22.4449310  25.5779310
  20.9149310  22.6049310  24.7269310  18.1669310  32.2959310  29.2899310
  17.9059310  31.9209310  30.1309310  18.8979310  31.7509310  29.0009310
  18.2269310  32.1779310  29.3599310  16.4049310  30.4889310  28.0049310
  15.6809310  30.7919310  27.4569310  16.9989310  31.2389310  28.0529310
  16.3889310  30.6239310  27.9409310  12.9539310  20.6429310  38.1949310
  12.7559310  20.7239310  37.2629310  12.1599310  20.9459310  38.6359310
  12.8269310  20.6919310  38.1319310  15.8779310  24.2529310  19.3429310
  15.2749310  24.9899310  19.2469310  16.5069310  24.5429310  20.0039310
  15.8809310  24.3839310  19.4149310  20.3049310  32.7149310  20.6359310
  20.7639310  31.8929310  20.8079310  21.0029310  33.3549310  20.4969310
  20.4529310  32.6919310  20.6399310  19.0279310  23.2059310  29.6179310
  19.9089310  23.4979310  29.8499310  19.1139310  22.8719310  28.7249310
  19.1519310  23.2009310  29.5329310  12.9219310  29.6689310  36.9519310
  12.1599310  30.2369310  36.8349310  13.1269310  29.3589310  36.0699310
  12.8499310  29.7019310  36.8239310  14.9929310  30.9639310  38.2889310
  15.4759310  31.5249310  37.6819310  14.5499310  30.3279310  37.7279310
  14.9979310  30.9549310  38.1399310  23.3249310  19.0249310  27.8019310
  22.3729310  18.9619310  27.8729310  23.6529310  18.2969310  28.3299310
  23.2449310  18.9239310  27.8789310  28.4539310  27.0329310  29.9239310
  28.8939310  27.5399310  30.6069310  27.7819310  26.5359310  30.3899310
  28.4249310  27.0339310  30.0709310  18.9739310  26.5539310  36.9879310
  18.8169310  25.6099310  36.9519310  18.8849310  26.8459310  36.0809310
  18.9419310  26.4699310  36.8669310  23.1809310  29.8619310  21.0899310
  23.4849310  28.9689310  21.2459310  23.7079310  30.4019310  21.6789310
  23.2869310  29.8169310  21.1849310  25.8039310  20.3499310  21.6659310
  25.9079310  20.6939310  22.5529310  25.6739310  21.1259310  21.1209310
  25.8009310  20.4929310  21.7099310  28.4459310  21.1979310  28.9929310
  29.3579310  21.2089310  29.2859310  28.4459310  20.6129310  28.2349310
  28.5629310  21.1239310  28.9339310  26.2909310  25.5349310  30.8439310
  25.4159310  25.2779310  30.5539310  26.6429310  24.7519310  31.2679310
  26.2239310  25.4019310  30.8609310  15.9999310  32.4509310  36.0019310
  15.7479310  33.3549310  36.1929310  16.9049310  32.3859310  36.3049310
  16.0839310  32.5589310  36.0649310  18.0329310  17.5239310  19.6529310
  18.3749310  17.5329310  20.5469310  17.5479310  18.3459310  19.5749310
  18.0149310  17.6309310  19.7569310  13.2019310  17.4399310  29.5569310
  14.0359310  17.8939310  29.4329310  12.6139310  17.8389310  28.9169310
  13.2339310  17.5489310  29.4599310  14.3009310  16.5729310  36.5689310
  13.4679310  16.1459310  36.7699310  14.2679310  17.3999310  37.0489310
  14.1899310  16.6239310  36.6559310  20.6359310  22.0349310  27.3069310
  20.7219310  21.2509310  27.8499310  21.0759310  22.7219310  27.8069310
  20.7029310  22.0229310  27.4399310  29.3139310  30.7749310  22.6429310
  29.4349310  31.6499310  22.2749310  29.5229310  30.1809310  21.9219310
  29.3559310  30.8109310  22.5029310  27.7319310  16.1739310  21.5209310
  27.8599310  17.0889310  21.2689310  26.7829310  16.0789310  21.6059310
  27.6269310  16.2789310  21.4999310  13.7109310  34.2569310  23.8259310
  12.9299310  34.1259310  23.2879310  13.6809310  35.1819310  24.0699310
  13.6069310  34.3589310  23.7879310  23.7619310  30.0589310  35.7769310
  24.3439310  29.8949310  36.5179310  23.1689310  30.7449310  36.0849310
  23.7599310  30.1259310  35.9109310  20.0639310  30.5229310  28.5159310
  19.5839310  29.7149310  28.6929310  20.7939310  30.5089310  29.1349310
  20.0959310  30.4179310  28.6179310  30.9069310  17.5119310  19.5219310
  30.7309310  18.3529310  19.1009310  30.0979310  17.0129310  19.4079310
  30.7809310  17.5559310  19.4539310  33.4759310  23.4399310  26.8999310
  33.4899310  23.1269310  27.8049310  33.4269310  24.3929310  26.9769310
  33.4719310  23.5219310  27.0259310  22.8689310  21.3759310  20.7829310
  22.2429310  20.6519310  20.8069310  23.0869310  21.5349310  21.7009310
  22.8169310  21.3039310  20.9029310  19.6069310  23.0239310  32.9029310
  18.7619310  22.7039310  33.2199310  20.0799310  22.2329310  32.6439310
  19.5589310  22.8819310  32.9109310  16.5339310  28.2099310  37.2369310
  17.3449310  27.7219310  37.0949310  16.2649310  28.4869310  36.3609310
  16.6029310  28.1829310  37.1059310  15.4419310  32.7819310  22.3599310
  14.8599310  33.2799310  22.9329310  15.6709310  33.3929310  21.6599310
  15.3969310  32.9239310  22.3439310  29.3349310  18.8909310  34.0779310
  28.4689310  18.7269310  33.7069310  29.9169310  18.2989310  33.5999310
  29.2989310  18.7939310  33.9689310  29.0409310  24.3409310  20.7839310
  28.5839310  24.0999310  21.5899310  29.9669310  24.2009310  20.9829310
  29.1009310  24.2919310  20.9129310  18.7959310  27.2499310  34.2649310
  19.6759310  26.8769310  34.2129310  18.2579310  26.6689310  33.7279310
  18.8399310  27.1279310  34.1899310  27.1659310  20.0579310  26.3719310
  27.8619310  19.6719310  25.8389310  26.5559310  19.3359310  26.5269310
  27.1769310  19.9159310  26.3229310  25.2399310  25.5069310  33.9139310
  24.6829310  25.1129310  33.2419310  24.6639310  26.1169310  34.3739310
  25.0949310  25.5349310  33.8869310  23.0669310  21.4939310  23.4469310
  22.2439310  21.7769310  23.8429310  23.7449310  21.8799310  24.0019310
  23.0489310  21.5789310  23.5689310  16.0789310  25.0849310  31.5399310
  15.7019310  24.9579310  32.4099310  15.5159310  24.5739310  30.9579310
  15.9589310  25.0039310  31.5769310  25.0859310  26.5949310  26.9949310
  25.6309310  27.0959310  27.6019310  24.3919310  27.2019310  26.7379310
  25.0669310  26.7359310  27.0399310  13.0689310  28.1609310  27.8159310
  13.4629310  28.0909310  26.9459310  13.6809310  27.7059310  28.3929310
  13.1979310  28.0939310  27.7779310  27.7899310  23.8409310  23.1879310
  27.7469310  24.4599310  23.9179310  27.4239310  23.0299310  23.5399310
  27.7379310  23.8169310  23.3269310  22.5399310  24.7049310  23.6669310
  21.8679310  24.0239310  23.6969310  22.6189310  24.9219310  22.7379310
  22.4639310  24.6459310  23.5519310  16.2269310  19.5579310  37.6299310
  16.0739310  19.8379310  36.7279310  15.9899310  20.3179310  38.1609310
  16.1769310  19.6909310  37.5829310  23.7259310  33.6839310  32.7849310
  23.1769310  33.6149310  32.0049310  24.0899310  32.8069310  32.9009310
  23.7029310  33.5629310  32.6999310  18.1599310  23.6789310  36.7359310
  18.0449310  23.3949310  35.8289310  17.2689310  23.7819310  37.0689310
  18.0309310  23.6559310  36.6619310  17.2049310  22.0059310  31.5819310
  16.6149310  21.2669310  31.4299310  17.8169310  21.9779310  30.8469310
  17.2079310  21.9079310  31.4679310  18.5899310  28.1979310  29.6139310
  18.5499310  27.2429310  29.5769310  18.1349310  28.4259310  30.4239310
  18.5269310  28.1049310  29.7129310  12.1729310  23.9529310  23.4329310
  12.8379310  24.5529310  23.7709310  11.3409310  24.3869310  23.6219310
  12.1519310  24.0849310  23.5009310  14.5059310  28.3979310  25.6349310
  15.1849310  28.1179310  26.2489310  14.6039310  29.3479310  25.5859310
  14.6049310  28.4839310  25.7079310  19.9199310  27.1339310  20.7219310
  19.5369310  26.8249310  19.9009310  20.1589310  28.0449310  20.5469310
  19.9019310  27.2109310  20.5949310  14.1759310  18.5889310  26.3999310
  13.9379310  17.7699310  25.9659310  13.4149310  19.1569310  26.2729310
  14.0479310  18.5569310  26.3279310  18.7469310  17.4039310  22.4039310
  18.9919310  16.5289310  22.7049310  18.5319310  17.8809310  23.2049310
  18.7509310  17.3529310  22.5449310  23.9789310  19.1529310  24.9419310
  23.6849310  19.8679310  24.3779310  23.7079310  19.4139310  25.8219310
  23.9069310  19.2779310  24.9819310  22.4329310  30.8089310  30.0239310
  22.3689310  30.2889310  30.8259310  22.9779310  31.5579310  30.2669310
  22.4939310  30.8379310  30.1579310  27.9319310  29.7049310  26.6429310
  27.0169310  29.7149310  26.3599310  28.0539310  28.8369310  27.0279310
  27.8299310  29.5949310  26.6559310  15.5849310  21.6689310  20.4379310
  14.6599310  21.4259310  20.4759310  15.5809310  22.5889310  20.1729310
  15.4669310  21.7559310  20.4089310  17.5539310  26.0219310  23.7269310
  18.3769310  26.5079310  23.6889310  17.6049310  25.5269310  24.5439310
  17.6659310  26.0209310  23.8259310  14.2449310  33.8969310  27.8029310
  13.7029310  34.3199310  28.4699310  15.1439310  34.0939310  28.0649310
  14.2899310  33.9769310  27.9219310  19.8489310  27.6589310  23.7289310
  19.3259310  28.3619310  24.1149310  19.8609310  27.8549310  22.7929310
  19.7839310  27.7739310  23.6589310  26.8919310  22.5259310  19.8929310
  27.3699310  22.1729310  19.1439310  27.3939310  23.2979310  20.1559310
  27.0169310  22.5799310  19.8309310  15.7859310  27.9619310  34.7229310
  15.7479310  28.2789310  33.8209310  14.9139310  27.6029310  34.8879310
  15.6689310  27.9559310  34.6289310  19.6939310  29.7019310  33.2979310
  18.9109310  30.1079310  32.9289310  19.4059310  28.8309310  33.5709310
  19.5569310  29.6419310  33.2859310  13.4319310  31.7139310  30.0409310
  14.0869310  32.0749310  29.4439310  12.7539310  31.3589310  29.4659310
  13.4289310  31.7149310  29.8909310  28.7439310  13.6059310  29.2919310
  28.8899310  14.0109310  30.1469310  27.7989310  13.6739310  29.1529310
  28.6419310  13.6659310  29.3839310  18.7199310  25.6589310  31.7769310
  19.0449310  24.8559310  32.1839310  17.8509310  25.4269310  31.4509310
  18.6499310  25.5269310  31.7869310  14.3359310  26.5929310  37.7459310
  15.1389310  27.1029310  37.6359310  13.8859310  27.0109310  38.4799310
  14.3809310  26.7119310  37.8259310  24.8319310  23.7409310  27.0059310
  25.3299310  23.5339310  26.2149310  25.0159310  24.6659310  27.1699310
  24.9189310  23.8329310  26.9259310  19.4569310  22.4869310  20.7469310
  18.9759310  21.6699310  20.6159310  19.8909310  22.6459310  19.9089310
  19.4509310  22.4029310  20.6229310  13.4209310  27.5239310  21.2049310
  14.1879310  27.2009310  21.6799310  12.6789310  27.2849310  21.7599310
  13.4239310  27.4519310  21.3369310  29.5199310  34.5129310  29.0739310
  29.3729310  33.5699310  29.1549310  30.1739310  34.7109310  29.7449310
  29.5849310  34.4169310  29.1699310  30.8529310  30.7909310  27.8599310
  30.0089310  31.2039310  28.0439310  30.7209310  29.8689310  28.0779310
  30.7279310  30.7259310  27.9109310  12.7589310  21.2799310  29.9009310
  13.5569310  20.9299310  29.5059310  12.7389310  20.8999310  30.7789310
  12.8579310  21.1859310  29.9629310  22.1529310  24.3369310  27.6289310
  21.7459310  25.0969310  27.2129310  23.0149310  24.2719310  27.2189310
  22.2109310  24.4259310  27.5229310  26.6899310  25.5759310  25.1109310
  27.3639310  25.9879310  25.6509310  25.8799310  26.0219310  25.3569310
  26.6729310  25.6859310  25.2109310  14.8439310  26.0669310  28.6139310
  15.8009310  26.0509310  28.5949310  14.5989310  25.2529310  29.0539310
  14.9349310  25.9609310  28.6679310  25.1469310  20.0769310  31.1529310
  24.6929310  20.5189310  30.4349310  24.6049310  20.2519310  31.9219310
  25.0199310  20.1559310  31.1589310  30.3119310  25.0049310  30.0969310
  29.9229310  24.5309310  30.8329310  29.7769310  25.7939310  30.0109310
  30.1939310  25.0449310  30.1799310  23.6859310  21.5529310  28.9629310
  24.3119310  22.0029310  28.3959310  23.5439310  20.7059310  28.5389310
  23.7479310  21.5019310  28.8359310  22.2209310  29.4299310  32.4619310
  22.6139310  30.2509310  32.7579310  21.3079310  29.4849310  32.7439310
  22.1549310  29.5419310  32.5359310  23.7099310  18.2979310  21.7189310
  22.9509310  18.5459310  21.1909310  24.2649310  19.0779310  21.7199310
  23.6839310  18.4299310  21.6519310  16.2449310  21.5909310  23.4359310
  16.1549310  21.3199310  22.5229310  15.3469310  21.7479310  23.7289310
  16.1179310  21.5769310  23.3569310  25.8319310  17.4819310  26.2319310
  25.1699310  17.8879310  25.6719310  26.5269310  17.2189310  25.6289310
  25.8359310  17.5009310  26.0829310  27.4449310  22.7139310  31.6109310
  27.1799310  22.0619310  32.2609310  27.6639310  22.2009310  30.8329310
  27.4389310  22.5649310  31.5949310  18.1909310  24.5069310  25.8359310
  18.3789310  23.7549310  25.2739310  19.0469310  24.8979310  26.0059310
  18.3239310  24.4609310  25.7859310  19.8469310  19.3669310  35.0759310
  20.7689310  19.4429310  35.3199310  19.3949310  19.9839310  35.6509310
  19.9069310  19.4549310  35.1799310  16.8379310  16.3769310  27.9949310
  17.0089310  17.2979310  28.1939310  17.4039310  15.8929310  28.5959310
  16.9319310  16.4329310  28.0969310  20.6409310  29.7139310  20.1189310
  21.4849310  29.6759310  20.5699310  20.8639310  29.9189310  19.2109310
  20.7779310  29.7349310  20.0609310  17.6919310  25.5039310  28.3879310
  17.9489310  25.0859310  27.5659310  17.7759310  24.8119310  29.0439310
  17.7359310  25.3619310  28.3669310  25.0039310  29.9589310  28.8469310
  25.1019310  30.2059310  27.9269310  24.1499310  30.3089310  29.0989310
  24.9069310  30.0349310  28.7619310  22.3939310  34.3729310  26.1859310
  22.2089310  33.5459310  25.7399310  22.0819310  35.0459310  25.5809310
  22.3299310  34.3529310  26.0509310  23.9819310  33.6079310  19.2759310
  24.1399310  34.4469310  18.8429310  24.2439310  33.7549310  20.1849310
  24.0359310  33.7339310  19.3369310  26.0919310  32.3849310  29.3859310
  25.5479310  32.9849310  28.8749310  25.7009310  31.5239310  29.2399310
  25.9729310  32.3519310  29.3019310  20.1839310  34.7529310  28.3589310
  20.1499310  34.0659310  29.0239310  20.6599310  34.3579310  27.6289310
  20.2399310  34.6149310  28.3509310  22.0629310  25.4809310  21.0469310
  22.7929310  26.1009310  21.0359310  21.2809310  26.0319310  21.0159310
  22.0559310  25.6309310  21.0409310  21.6949310  22.8619310  30.1629310
  21.2459310  22.1079310  30.5449310  22.4169310  22.4819310  29.6629310
  21.7299310  22.7169310  30.1479310  23.2299310  26.9859310  31.8749310
  22.9539310  27.8099310  32.2769310  24.1809310  26.9729310  31.9839310
  23.3169310  27.0899310  31.9399310  18.7179310  19.5989310  24.1459310
  18.5699310  20.5419310  24.0679310  17.9259310  19.2669310  24.5699310
  18.5979310  19.6769310  24.1899310  22.5859310  34.2089310  30.1239310
  23.3759310  34.7469310  30.0699310  21.9859310  34.6009310  29.4899310
  22.6099310  34.3279310  30.0359310  22.3689310  19.9429310  36.5649310
  21.9029310  20.5409310  37.1489310  22.9639310  20.5069310  36.0699310
  22.3849310  20.0909310  36.5759310  17.9739310  20.0879310  20.7409310
  17.0569310  19.8729310  20.9069310  18.4489310  19.6999310  21.4759310
  17.9169310  20.0109310  20.8559310  14.6159310  24.8339310  34.0119310
  13.9369310  25.4729310  34.2319310  14.2069310  23.9849310  34.1749310
  14.4759310  24.8069310  34.0609310  25.5759310  32.8389310  24.9759310
  25.2079310  33.4199310  25.6409310  26.4669310  33.1619310  24.8419310
  25.6429310  32.9549310  25.0439310  12.7639310  17.7429310  32.5939310
  13.6259310  17.7039310  33.0079310  12.9499310  17.8929310  31.6669310
  12.8979310  17.7569310  32.5279310  23.6809310  25.2759310  29.9609310
  23.4129310  25.9189310  30.6179310  22.8819310  25.0939310  29.4649310
  23.5439310  25.3349310  29.9809310  12.2229310  22.9139310  36.5809310
  11.6229310  23.6469310  36.7219310  12.7699310  22.8969310  37.3669310
  12.2159310  23.0059310  36.6999310  13.5789310  21.8149310  24.6239310
  13.9789310  22.3999310  25.2679310  13.1149310  22.3999310  24.0249310
  13.5709310  21.9649310  24.6299310  23.6579310  23.6099310  32.5229310
  23.4949310  23.9189310  31.6319310  22.7969310  23.3459310  32.8459310
  23.5269310  23.6159310  32.4509310  23.8799310  17.8309310  36.6609310
  23.8769310  17.5409310  35.7489310  23.2079310  18.5119310  36.6979310
  23.7929310  17.8809310  36.5489310  15.5389310  16.4939310  20.6689310
  15.5399310  17.2359310  21.2729310  16.0429310  16.7979310  19.9149310
  15.6039310  16.6279310  20.6499310  16.4549310  28.5299310  20.9529310
  16.5409310  28.4789310  20.0009310  15.9019310  29.2979310  21.1019310
  16.3949310  28.6219310  20.8499310  23.5899310  27.2729310  35.0589310
  22.7719310  27.1169310  34.5879310  23.6379310  28.2249310  35.1479310
  23.4919310  27.3749310  35.0099310  13.9689310  23.7509310  29.8119310
  13.1899310  24.2569310  30.0429310  13.7069310  22.8379310  29.9349310
  13.8359310  23.6989310  29.8569310  17.0649310  27.9079310  26.9179310
  16.9779310  28.6879310  27.4669310  17.1369310  27.1839310  27.5409310
  17.0629310  27.9149310  27.0679310  12.6959310  18.9919310  22.1229310
  12.6389310  18.7379310  21.2019310  12.1479310  19.7739310  22.1909310
  12.6189310  19.0599310  22.0139310  17.1669310  23.0489310  34.1019310
  17.0759310  22.9289310  33.1569310  16.4429310  23.6269310  34.3399310
  17.0629310  23.1079310  34.0109310  18.2489310  16.5649310  25.5539310
  17.8439310  16.2339310  26.3559310  18.3559310  15.7909310  25.0019310
  18.2109310  16.4239310  25.5859310  29.3339310  32.0239310  25.2939310
  29.4039310  31.3949310  26.0109310  29.3999310  31.4919310  24.5009310
  29.3509310  31.8759310  25.2839310  18.7919310  22.6109310  23.4399310
  19.1649310  22.5459310  22.5609310  17.8869310  22.3149310  23.3389310
  18.7239310  22.5639310  23.3149310  18.4909310  29.7679310  21.8739310
  17.7589310  29.2789310  21.4979310  19.1509310  29.7809310  21.1819310
  18.4809310  29.7069310  21.7379310  20.9369310  19.5079310  25.8249310
  20.0849310  19.3699310  25.4129310  20.9869310  20.4549310  25.9609310
  20.8349310  19.6119310  25.7899310  13.4369310  33.1129310  32.4449310
  13.1439310  32.8399310  31.5749310  13.1289310  34.0149310  32.5289310
  13.3599310  33.1929310  32.3439310  15.8089310  20.1759310  35.0159310
  16.5999310  20.2089310  34.4789310  15.4489310  21.0619310  34.9679310
  15.8639310  20.2929310  34.9409310  21.9819310  23.1789310  19.0639310
  21.9629310  23.8289310  19.7659310  22.3369310  22.3909310  19.4759310
  22.0249310  23.1619310  19.2059310  17.3519310  30.4769310  31.8429310
  16.7819310  31.1639310  32.1899310  16.8999310  29.6609310  32.0569310
  17.2209310  30.4609310  31.9149310  23.9439310  32.0579310  22.9339310
  23.2589310  31.9859310  23.5989310  24.7419310  32.2359310  23.4309310
  23.9579310  32.0709310  23.0829310  21.6549310  17.6819310  23.9159310
  21.4299310  18.4669310  24.4149310  22.5539310  17.8339310  23.6239310
  21.7419310  17.8019310  23.9429310  27.0819310  17.4019310  28.7859310
  27.9529310  17.0089310  28.8429310  26.9829310  17.6329310  27.8629310
  27.1809310  17.3809310  28.6749310  23.9899310  17.6689310  33.9199310
  23.7299310  16.8929310  33.4229310  24.9459310  17.6739310  33.8719310
  24.0789310  17.5699310  33.8499310  27.1069310  21.2669310  24.0339310
  26.8859310  21.0169310  24.9319310  27.9229310  20.8009310  23.8509310
  27.1829310  21.1749310  24.1259310  24.9529310  31.0299310  19.1809310
  24.5529310  31.8979310  19.2309310  24.4769310  30.5089310  19.8279310
  24.8409310  31.0749310  19.2699310  20.9099310  19.8169310  29.2009310
  20.0589310  19.3859310  29.1139310  21.0089310  19.9639310  30.1419310
  20.8129310  19.7809310  29.3099310  19.5409310  16.8379310  36.3519310
  18.9879310  17.1489310  37.0679310  19.6019310  17.5839310  35.7549310
  19.4779310  16.9729310  36.3669310  18.3319310  29.3509310  25.0369310
  17.6959310  28.8959310  25.5879310  17.8439310  30.0849310  24.6639310
  18.1889310  29.3869310  25.0599310  24.2099310  31.0219310  33.2419310
  24.0069310  30.7119310  34.1239310  24.7239310  30.3139310  32.8519310
  24.2499310  30.8909310  33.3049310  29.7979310  21.2909310  21.8699310
  28.9749310  20.8039310  21.8219310  29.5459310  22.1549310  22.1979310
  29.6609310  21.3389310  21.9059310  20.6219310  30.9919310  36.0239310
  20.2349310  30.6269310  35.2279310  19.9739310  31.6209310  36.3389310
  20.4889310  31.0249310  35.9629310  12.9819310  30.3459310  33.3929310
  12.5999310  31.1889310  33.6369310  13.8059310  30.5719310  32.9619310
  13.0379310  30.4829310  33.3689310  14.8849310  19.9719310  28.8149310
  14.7909310  19.5049310  27.9849310  15.7079310  19.6489310  29.1799310
  14.9779310  19.8709310  28.7559310  28.5899310  28.4829310  24.1379310
  28.6119310  28.5989310  25.0879310  28.7629310  29.3559310  23.7869310
  28.6149310  28.6099310  24.2149310  27.9649310  34.4229310  24.4449310
  27.7009310  34.3879310  23.5259310  28.5869310  33.7019310  24.5439310
  28.0109310  34.3259310  24.3399310  25.1389310  34.4189310  21.9559310
  24.6229310  33.7339310  22.3819310  24.6559310  35.2259310  22.1299310
  25.0109310  34.4339310  22.0329310  17.0479310  19.2299310  30.0709310
  17.4999310  18.6509310  30.6849310  17.6109310  19.2449310  29.2979310
  17.1779310  19.1579310  30.0509310  13.6299310  22.3299310  34.3399310
  13.0639310  22.6909310  33.6579310  13.1339310  22.4459310  35.1499310
  13.4939310  22.3909310  34.3559310  24.8759310  35.9619310  30.2569310
  25.6509310  35.8059310  29.7179310  24.8449310  36.9129310  30.3629310
  24.9709310  36.0639310  30.2019310  21.4459310  32.3739310  24.4859310
  21.2079310  31.5609310  24.9299310  20.6409310  32.6519310  24.0489310
  21.3129310  32.3059310  24.4869310  16.0469310  28.0879310  31.9149310
  15.5859310  28.4319310  31.1499310  16.1279310  27.1499310  31.7429310
  15.9979310  28.0119310  31.7949310  14.2429310  25.7289310  24.0999310
  15.1989310  25.7609310  24.1269310  13.9719310  26.6459310  24.1379310
  14.3309310  25.8499310  24.1079310  19.0829310  21.1879310  37.0429310
  18.3179310  20.7909310  37.4609310  18.8289310  22.0989310  36.8949310
  18.9519310  21.2539310  37.0779310  15.6019310  19.0189310  22.0709310
  15.9099310  19.0839310  22.9749310  14.6839310  18.7609310  22.1499310
  15.5239310  18.9939310  22.1969310  24.9109310  23.2799310  24.4549310
  25.5309310  23.7239310  23.8759310  24.1009310  23.7839310  24.3699310
  24.8869310  23.4019310  24.3699310  11.5309310  29.3319310  20.4159310
  12.1589310  28.8089310  20.9149310  12.0249310  29.6379310  19.6549310
  11.6749310  29.3039310  20.3829310  17.2029310  31.4159310  23.6869310
  16.5029310  31.8139310  23.1699310  17.6349310  30.8129310  23.0809310
  17.1689310  31.3899310  23.5429310  25.8039310  29.3589310  31.5089310
  25.6309310  29.2819310  30.5709310  26.5869310  29.9059310  31.5639310
  25.8819310  29.4189310  31.3959310  20.6219310  25.7429310  25.8279310
  21.1359310  25.1429310  25.2879310  20.3479310  26.4329310  25.2239310
  20.6519310  25.7539310  25.6819310  30.3169310  33.6019310  22.1169310
  30.9039310  33.4249310  21.3819310  29.7259310  34.2819310  21.7929310
  30.3159310  33.6659310  21.9809310  13.1089310  33.0979310  19.8739310
  13.6659310  32.3389310  20.0459310  13.6769310  33.8519310  20.0299310
  13.2529310  33.0969310  19.9159310  30.6789310  20.3079310  25.8729310
  31.2609310  20.7929310  25.2869310  30.1129310  20.9779310  26.2559310
  30.6809310  20.4559310  25.8469310  25.0579310  27.0839310  37.1809310
  24.2469310  27.1219310  36.6739310  25.4219310  26.2209310  36.9859310
  25.0009310  26.9789310  37.0909310  18.3979310  19.1269310  27.7389310
  18.2199310  19.7169310  27.0069310  18.8829310  18.3999310  27.3489310
  18.4369310  19.1099310  27.5959310  12.0029310  25.7169310  26.3159310
  12.5999310  25.9729310  25.6119310  12.3059310  26.2119310  27.0779310
  12.1179310  25.8129310  26.3229310  14.6839310  29.2239310  30.1209310
  14.9429310  29.9169310  29.5129310  13.8119310  29.4829310  30.4199310
  14.6059310  29.3459310  30.0809310  28.3719310  26.8139310  27.1019310
  29.2249310  26.4729310  26.8319310  28.3939310  26.7849310  28.0579310
  28.4839310  26.7659310  27.1889310  21.3019310  23.7249310  35.0069310
  20.5479310  23.3949310  34.5179310  21.1009310  23.5269310  35.9209310
  21.1799310  23.6569310  35.0609310  24.8519310  23.0479310  37.0759310
  24.0679310  23.0089310  37.6239310  25.4889310  22.4969310  37.5299310
  24.8329310  22.9729310  37.2039310  30.4479310  16.8399310  26.6099310
  29.8519310  16.4899310  27.2719310  31.1659310  16.2079310  26.5749310
  30.4639310  16.7149310  26.6899310  26.5179310  27.4849310  22.3169310
  26.9139310  27.8259310  23.1189310  27.0089310  27.9039310  21.6099310
  26.6309310  27.5819310  22.3289310  26.2469310  21.5709310  34.2789310
  26.9399310  21.7649310  34.9109310  25.6109310  22.2769310  34.3969310
  26.2539310  21.6859310  34.3749310  26.7119310  33.8409310  31.7539310
  26.2389310  34.6739310  31.7469310  26.1809310  33.2599310  31.2099310
  26.5829310  33.8729310  31.6839310  18.8239310  18.5119310  13.7379310
  19.0519310  18.4839310  14.6669310  18.1949310  17.7999310  13.6249310
  18.7729310  18.4169310  13.8429310  16.2229310  32.6979310  13.9979310
  15.2689310  32.6299310  13.9659310  16.4119310  33.0049310  14.8839310
  16.1249310  32.7289310  14.1069310  20.9879310  30.1419310   7.1609310
  20.8139310  30.3029310   8.0889310  20.2229310  29.6559310   6.8549310
  20.8679310  30.0999310   7.2409310  16.7399310  16.7979310  13.2439310
  16.1799310  17.2459310  13.8779310  16.5939310  15.8669310  13.4109310
  16.6499310  16.7359310  13.3459310  17.5589310  25.0389310   2.4919310
  17.4049310  25.4959310   3.3189310  18.2709310  24.4289310   2.6839310
  17.6299310  25.0189310   2.6219310  20.9539310  20.2479310  13.0969310
  20.3509310  19.6069310  13.4719310  21.7429310  20.1789310  13.6349310
  20.9779310  20.1579310  13.2139310  21.4919310  16.6849310  19.3749310
  22.3839310  16.4559310  19.1109310  20.9699310  16.5639310  18.5819310
  21.5399310  16.6409310  19.2399310  14.4459310  31.2949310   7.4549310
  14.4839310  32.1879310   7.1109310  13.6469310  31.2739310   7.9809310
  14.3489310  31.4069310   7.4779310  19.1569310  33.0849310   4.1439310
  18.3579310  32.5579310   4.1539310  19.5009310  32.9819310   3.2569310
  19.0989310  33.0039310   4.0319310  23.3769310  20.0739310  14.3649310
  23.5549310  19.1919310  14.6909310  23.6959310  20.6539310  15.0569310
  23.4409310  20.0349310  14.4959310  23.0649310  28.0699310   6.6109310
  22.6389310  27.4629310   6.0069310  22.4019310  28.7369310   6.7889310
  22.9259310  28.0779310   6.5569310  28.8169310  18.7019310   5.8639310
  28.8849310  17.7549310   5.7399310  29.6859310  18.9669310   6.1649310
  28.9369310  18.6149310   5.8869310  29.9359310  22.9929310   7.7049310
  29.1569310  23.1029310   8.2499310  30.2799310  23.8789310   7.5959310
  29.8799310  23.1199310   7.7609310  21.2669310  26.3089310  15.1369310
  21.1389310  25.4439310  15.5259310  21.7099310  26.1339310  14.3059310
  21.3069310  26.1759310  15.0799310  29.8789310  26.8979310   3.8859310
  29.5129310  27.5389310   4.4959310  29.1139310  26.4759310   3.4939310
  29.7339310  26.9259310   3.9139310  12.3909310  20.6389310  13.6939310
  12.6679310  21.2079310  14.4119310  11.7889310  20.0159310  14.1009310
  12.3499310  20.6319310  13.8379310  13.2639310  26.9759310  16.2869310
  12.3429310  26.7559310  16.1469310  13.3439310  27.0829310  17.2339310
  13.1559310  26.9609310  16.3899310  28.2039310  18.9279310   2.9909310
  28.3359310  18.7839310   3.9279310  27.3359310  19.3269310   2.9309310
  28.1099310  18.9599310   3.1039310  24.8539310  30.6649310   7.4919310
  25.0299310  31.5149310   7.0889310  24.0949310  30.3279310   7.0179310
  24.7799310  30.7309310   7.3799310  24.6439310  33.9899310   8.7439310
  25.2299310  34.7269310   8.5689310  23.8619310  34.1759310   8.2249310
  24.6189310  34.1079310   8.6549310  16.9659310  21.2449310   7.2639310
  16.5589310  21.2439310   6.3969310  16.4799310  21.9079310   7.7549310
  16.8519310  21.3299310   7.2159310  15.0849310  17.6409310  15.2819310
  15.2919310  18.5389310  15.5389310  14.7289310  17.2399310  16.0749310
  15.0659310  17.7039310  15.4159310  16.3929310  18.4319310   5.9819310
  15.6349310  18.4189310   6.5669310  16.9249310  17.6879310   6.2629310
  16.3639310  18.3349310   6.0929310  23.4329310  22.1299310  16.2809310
  24.0189310  22.4429310  16.9699310  22.7069310  22.7549310  16.2809310
  23.4149310  22.2499310  16.3689310  21.0529310  22.6309310   5.8129310
  20.2279310  22.6129310   5.3279310  20.8019310  22.4449310   6.7179310
  20.9149310  22.6049310   5.8669310  18.1669310  32.2959310  10.4299310
  17.9059310  31.9209310  11.2709310  18.8979310  31.7509310  10.1409310
  18.2269310  32.1779310  10.4999310  16.4049310  30.4889310   9.1449310
  15.6809310  30.7919310   8.5969310  16.9989310  31.2389310   9.1929310
  16.3889310  30.6239310   9.0809310  12.9539310  20.6429310  19.3349310
  12.7559310  20.7239310  18.4029310  12.1599310  20.9459310  19.7759310
  12.8269310  20.6919310  19.2719310  20.3049310  32.7149310   1.7759310
  20.7639310  31.8929310   1.9479310  21.0029310  33.3549310   1.6369310
  20.4529310  32.6919310   1.7799310  19.0279310  23.2059310  10.7579310
  19.9089310  23.4979310  10.9899310  19.1139310  22.8719310   9.8649310
  19.1519310  23.2009310  10.6729310  12.9219310  29.6689310  18.0919310
  12.1599310  30.2369310  17.9749310  13.1269310  29.3589310  17.2099310
  12.8499310  29.7019310  17.9639310  14.9929310  30.9639310  19.4289310
  15.4759310  31.5249310  18.8219310  14.5499310  30.3279310  18.8679310
  14.9979310  30.9549310  19.2799310  18.6189310  32.6999310  18.2269310
  19.1929310  32.6129310  18.9879310  18.5769310  33.6419310  18.0649310
  18.6869310  32.8089310  18.3029310  23.3249310  19.0249310   8.9419310
  22.3729310  18.9619310   9.0129310  23.6529310  18.2969310   9.4699310
  23.2449310  18.9239310   9.0189310  28.4539310  27.0329310  11.0639310
  28.8939310  27.5399310  11.7469310  27.7819310  26.5359310  11.5299310
  28.4249310  27.0339310  11.2109310  29.6689310  28.8009310  13.2919310
  28.9549310  29.4059310  13.0929310  30.3849310  29.3639310  13.5889310
  29.6699310  28.9499310  13.3049310  18.9739310  26.5539310  18.1279310
  18.8169310  25.6099310  18.0919310  18.8849310  26.8459310  17.2209310
  18.9419310  26.4699310  18.0069310  23.1809310  29.8619310   2.2299310
  23.4849310  28.9689310   2.3859310  23.7079310  30.4019310   2.8189310
  23.2869310  29.8169310   2.3249310  25.8039310  20.3499310   2.8059310
  25.9079310  20.6939310   3.6929310  25.6739310  21.1259310   2.2609310
  25.8009310  20.4929310   2.8499310  28.4459310  21.1979310  10.1329310
  29.3579310  21.2089310  10.4259310  28.4459310  20.6129310   9.3749310
  28.5629310  21.1239310  10.0739310  26.2909310  25.5349310  11.9839310
  25.4159310  25.2779310  11.6939310  26.6429310  24.7519310  12.4079310
  26.2239310  25.4019310  12.0009310  15.9999310  32.4509310  17.1419310
  15.7479310  33.3549310  17.3329310  16.9049310  32.3859310  17.4449310
  16.0839310  32.5589310  17.2049310  13.2019310  17.4399310  10.6969310
  14.0359310  17.8939310  10.5729310  12.6139310  17.8389310  10.0569310
  13.2339310  17.5489310  10.5999310  14.3009310  16.5729310  17.7089310
  13.4679310  16.1459310  17.9099310  14.2679310  17.3999310  18.1889310
  14.1899310  16.6239310  17.7959310  20.6359310  22.0349310   8.4469310
  20.7219310  21.2509310   8.9899310  21.0759310  22.7219310   8.9469310
  20.7029310  22.0229310   8.5799310  29.2979310  19.6529310  17.7869310
  28.3989310  19.3249310  17.7819310  29.6229310  19.4759310  16.9049310
  29.2239310  19.5879310  17.6739310  29.3139310  30.7749310   3.7829310
  29.4349310  31.6499310   3.4149310  29.5229310  30.1809310   3.0619310
  29.3559310  30.8109310   3.6429310  27.7319310  16.1739310   2.6609310
  27.8599310  17.0889310   2.4089310  26.7829310  16.0789310   2.7459310
  27.6269310  16.2789310   2.6399310  13.7109310  34.2569310   4.9659310
  12.9299310  34.1259310   4.4279310  13.6809310  35.1819310   5.2099310
  13.6069310  34.3589310   4.9279310  23.7619310  30.0589310  16.9169310
  24.3439310  29.8949310  17.6579310  23.1689310  30.7449310  17.2249310
  23.7599310  30.1259310  17.0509310  20.0639310  30.5229310   9.6559310
  19.5839310  29.7149310   9.8329310  20.7939310  30.5089310  10.2749310
  20.0959310  30.4179310   9.7579310  33.4759310  23.4399310   8.0399310
  33.4899310  23.1269310   8.9449310  33.4269310  24.3929310   8.1169310
  33.4719310  23.5219310   8.1659310  22.8689310  21.3759310   1.9229310
  22.2429310  20.6519310   1.9469310  23.0869310  21.5349310   2.8409310
  22.8169310  21.3039310   2.0429310  19.6069310  23.0239310  14.0429310
  18.7619310  22.7039310  14.3599310  20.0799310  22.2329310  13.7839310
  19.5589310  22.8819310  14.0509310  16.5339310  28.2099310  18.3769310
  17.3449310  27.7219310  18.2349310  16.2649310  28.4869310  17.5009310
  16.6029310  28.1829310  18.2459310  15.4419310  32.7819310   3.4999310
  14.8599310  33.2799310   4.0729310  15.6709310  33.3929310   2.7999310
  15.3969310  32.9239310   3.4839310  29.3349310  18.8909310  15.2179310
  28.4689310  18.7269310  14.8469310  29.9169310  18.2989310  14.7399310
  29.2989310  18.7939310  15.1089310  29.0409310  24.3409310   1.9239310
  28.5839310  24.0999310   2.7299310  29.9669310  24.2009310   2.1229310
  29.1009310  24.2919310   2.0529310  18.7959310  27.2499310  15.4049310
  19.6759310  26.8769310  15.3529310  18.2579310  26.6689310  14.8679310
  18.8399310  27.1279310  15.3299310  27.7849310  30.9609310  13.7619310
  27.4339310  30.8579310  14.6469310  27.9329310  31.9029310  13.6719310
  27.7589310  31.0679310  13.8639310  29.9219310  32.7279310  15.6409310
  30.1199310  32.3329310  16.4909310  29.2509310  33.3829310  15.8319310
  29.8609310  32.7609310  15.7739310  27.1659310  20.0579310   7.5119310
  27.8619310  19.6719310   6.9789310  26.5559310  19.3359310   7.6669310
  27.1769310  19.9159310   7.4629310  25.2399310  25.5069310  15.0539310
  24.6829310  25.1129310  14.3819310  24.6639310  26.1169310  15.5139310
  25.0949310  25.5349310  15.0269310  29.1539310  24.7679310  18.2479310
  28.3309310  25.1079310  17.8989310  29.0099310  24.7119310  19.1929310
  29.0309310  24.8039310  18.3239310  23.0669310  21.4939310   4.5869310
  22.2439310  21.7769310   4.9829310  23.7449310  21.8799310   5.1419310
  23.0489310  21.5789310   4.7089310  16.0789310  25.0849310  12.6799310
  15.7019310  24.9579310  13.5499310  15.5159310  24.5739310  12.0979310
  15.9589310  25.0039310  12.7169310  25.0859310  26.5949310   8.1349310
  25.6309310  27.0959310   8.7419310  24.3919310  27.2019310   7.8779310
  25.0669310  26.7359310   8.1799310  13.0689310  28.1609310   8.9559310
  13.4629310  28.0909310   8.0859310  13.6809310  27.7059310   9.5329310
  13.1979310  28.0939310   8.9179310  27.7899310  23.8409310   4.3279310
  27.7469310  24.4599310   5.0579310  27.4239310  23.0299310   4.6799310
  27.7379310  23.8169310   4.4669310  22.5399310  24.7049310   4.8069310
  21.8679310  24.0239310   4.8369310  22.6189310  24.9219310   3.8779310
  22.4639310  24.6459310   4.6919310  16.2269310  19.5579310  18.7699310
  16.0739310  19.8379310  17.8679310  15.9899310  20.3179310  19.3009310
  16.1769310  19.6909310  18.7229310  23.7259310  33.6839310  13.9249310
  23.1769310  33.6149310  13.1449310  24.0899310  32.8069310  14.0409310
  23.7029310  33.5629310  13.8399310  18.1599310  23.6789310  17.8759310
  18.0449310  23.3949310  16.9689310  17.2689310  23.7819310  18.2089310
  18.0309310  23.6559310  17.8019310  17.2049310  22.0059310  12.7219310
  16.6149310  21.2669310  12.5699310  17.8169310  21.9779310  11.9869310
  17.2079310  21.9079310  12.6079310  18.5899310  28.1979310  10.7539310
  18.5499310  27.2429310  10.7169310  18.1349310  28.4259310  11.5639310
  18.5269310  28.1049310  10.8529310  26.5549310  24.8509310  17.4359310
  25.8639310  24.2109310  17.6039310  26.3469310  25.2069310  16.5729310
  26.4399310  24.8139310  17.3469310  12.1729310  23.9529310   4.5729310
  12.8379310  24.5529310   4.9109310  11.3409310  24.3869310   4.7619310
  12.1519310  24.0849310   4.6409310  14.5059310  28.3979310   6.7749310
  15.1849310  28.1179310   7.3889310  14.6039310  29.3479310   6.7259310
  14.6049310  28.4839310   6.8479310  14.1759310  18.5889310   7.5399310
  13.9379310  17.7699310   7.1059310  13.4149310  19.1569310   7.4129310
  14.0479310  18.5569310   7.4679310  18.7469310  17.4039310   3.5439310
  18.9919310  16.5289310   3.8449310  18.5319310  17.8809310   4.3449310
  18.7509310  17.3529310   3.6849310  23.9789310  19.1529310   6.0819310
  23.6849310  19.8679310   5.5179310  23.7079310  19.4139310   6.9619310
  23.9069310  19.2779310   6.1219310  22.4329310  30.8089310  11.1639310
  22.3689310  30.2889310  11.9659310  22.9779310  31.5579310  11.4069310
  22.4939310  30.8379310  11.2979310  27.9319310  29.7049310   7.7829310
  27.0169310  29.7149310   7.4999310  28.0539310  28.8369310   8.1679310
  27.8299310  29.5949310   7.7959310  17.5539310  26.0219310   4.8669310
  18.3769310  26.5079310   4.8289310  17.6049310  25.5269310   5.6839310
  17.6659310  26.0209310   4.9659310  14.2449310  33.8969310   8.9429310
  13.7029310  34.3199310   9.6099310  15.1439310  34.0939310   9.2049310
  14.2899310  33.9769310   9.0619310  19.8489310  27.6589310   4.8689310
  19.3259310  28.3619310   5.2549310  19.8609310  27.8549310   3.9329310
  19.7839310  27.7739310   4.7989310  15.7859310  27.9619310  15.8629310
  15.7479310  28.2789310  14.9609310  14.9139310  27.6029310  16.0279310
  15.6689310  27.9559310  15.7689310  19.6939310  29.7019310  14.4379310
  18.9109310  30.1079310  14.0689310  19.4059310  28.8309310  14.7109310
  19.5569310  29.6419310  14.4259310  13.4319310  31.7139310  11.1809310
  14.0869310  32.0749310  10.5839310  12.7539310  31.3589310  10.6059310
  13.4289310  31.7149310  11.0309310  28.7439310  13.6059310  10.4319310
  28.8899310  14.0109310  11.2869310  27.7989310  13.6739310  10.2929310
  28.6419310  13.6659310  10.5239310  18.7199310  25.6589310  12.9169310
  19.0449310  24.8559310  13.3239310  17.8509310  25.4269310  12.5909310
  18.6499310  25.5269310  12.9269310  14.3359310  26.5929310  18.8859310
  15.1389310  27.1029310  18.7759310  13.8859310  27.0109310  19.6199310
  14.3809310  26.7119310  18.9659310  24.8319310  23.7409310   8.1459310
  25.3299310  23.5339310   7.3549310  25.0159310  24.6659310   8.3099310
  24.9189310  23.8329310   8.0659310  13.4209310  27.5239310   2.3449310
  14.1879310  27.2009310   2.8199310  12.6789310  27.2849310   2.8999310
  13.4239310  27.4519310   2.4769310  29.5199310  34.5129310  10.2139310
  29.3729310  33.5699310  10.2949310  30.1739310  34.7109310  10.8849310
  29.5849310  34.4169310  10.3099310  30.8529310  30.7909310   8.9999310
  30.0089310  31.2039310   9.1839310  30.7209310  29.8689310   9.2179310
  30.7279310  30.7259310   9.0509310  12.7589310  21.2799310  11.0409310
  13.5569310  20.9299310  10.6459310  12.7389310  20.8999310  11.9189310
  12.8579310  21.1859310  11.1029310  22.1529310  24.3369310   8.7689310
  21.7459310  25.0969310   8.3529310  23.0149310  24.2719310   8.3589310
  22.2109310  24.4259310   8.6629310  26.6899310  25.5759310   6.2509310
  27.3639310  25.9879310   6.7909310  25.8799310  26.0219310   6.4969310
  26.6729310  25.6859310   6.3509310  14.8439310  26.0669310   9.7539310
  15.8009310  26.0509310   9.7349310  14.5989310  25.2529310  10.1939310
  14.9349310  25.9609310   9.8079310  25.1469310  20.0769310  12.2929310
  24.6929310  20.5189310  11.5749310  24.6049310  20.2519310  13.0619310
  25.0199310  20.1559310  12.2989310  30.3119310  25.0049310  11.2369310
  29.9229310  24.5309310  11.9729310  29.7769310  25.7939310  11.1509310
  30.1939310  25.0449310  11.3199310  23.6859310  21.5529310  10.1029310
  24.3119310  22.0029310   9.5359310  23.5439310  20.7059310   9.6789310
  23.7479310  21.5019310   9.9759310  22.2209310  29.4299310  13.6019310
  22.6139310  30.2509310  13.8979310  21.3079310  29.4849310  13.8839310
  22.1549310  29.5419310  13.6759310  23.7099310  18.2979310   2.8589310
  22.9509310  18.5459310   2.3309310  24.2649310  19.0779310   2.8599310
  23.6839310  18.4299310   2.7919310  16.2449310  21.5909310   4.5759310
  16.1549310  21.3199310   3.6629310  15.3469310  21.7479310   4.8689310
  16.1179310  21.5769310   4.4969310  25.8319310  17.4819310   7.3719310
  25.1699310  17.8879310   6.8119310  26.5269310  17.2189310   6.7689310
  25.8359310  17.5009310   7.2229310  27.4449310  22.7139310  12.7509310
  27.1799310  22.0619310  13.4009310  27.6639310  22.2009310  11.9729310
  27.4389310  22.5649310  12.7349310  18.1909310  24.5069310   6.9759310
  18.3789310  23.7549310   6.4139310  19.0469310  24.8979310   7.1459310
  18.3239310  24.4609310   6.9259310  19.8469310  19.3669310  16.2159310
  20.7689310  19.4429310  16.4599310  19.3949310  19.9839310  16.7909310
  19.9069310  19.4549310  16.3199310  16.8379310  16.3769310   9.1349310
  17.0089310  17.2979310   9.3339310  17.4039310  15.8929310   9.7359310
  16.9319310  16.4329310   9.2369310  17.6919310  25.5039310   9.5279310
  17.9489310  25.0859310   8.7059310  17.7759310  24.8119310  10.1839310
  17.7359310  25.3619310   9.5069310  25.0039310  29.9589310   9.9869310
  25.1019310  30.2059310   9.0669310  24.1499310  30.3089310  10.2389310
  24.9069310  30.0349310   9.9019310  22.3939310  34.3729310   7.3259310
  22.2089310  33.5459310   6.8799310  22.0819310  35.0459310   6.7209310
  22.3299310  34.3529310   7.1909310  28.4979310  16.2429310  18.9509310
  27.9569310  15.7279310  19.5489310  28.0339310  17.0759310  18.8639310
  28.3699310  16.2839310  19.0169310  26.0919310  32.3849310  10.5259310
  25.5479310  32.9849310  10.0149310  25.7009310  31.5239310  10.3799310
  25.9729310  32.3519310  10.4419310  29.8669310  23.7939310  14.1489310
  28.9709310  23.4689310  14.0619310  29.7669310  24.6889310  14.4739310
  29.7389310  23.8669310  14.1799310  20.1839310  34.7529310   9.4989310
  20.1499310  34.0659310  10.1639310  20.6599310  34.3579310   8.7689310
  20.2399310  34.6149310   9.4909310  22.0629310  25.4809310   2.1869310
  22.7929310  26.1009310   2.1759310  21.2809310  26.0319310   2.1559310
  22.0559310  25.6309310   2.1809310  21.6949310  22.8619310  11.3029310
  21.2459310  22.1079310  11.6849310  22.4169310  22.4819310  10.8029310
  21.7299310  22.7169310  11.2879310  23.2299310  26.9859310  13.0149310
  22.9539310  27.8099310  13.4169310  24.1809310  26.9729310  13.1239310
  23.3169310  27.0899310  13.0799310  18.7179310  19.5989310   5.2859310
  18.5699310  20.5419310   5.2079310  17.9259310  19.2669310   5.7099310
  18.5979310  19.6769310   5.3299310  22.5859310  34.2089310  11.2639310
  23.3759310  34.7469310  11.2099310  21.9859310  34.6009310  10.6299310
  22.6099310  34.3279310  11.1759310  22.3689310  19.9429310  17.7049310
  21.9029310  20.5409310  18.2889310  22.9639310  20.5069310  17.2099310
  22.3849310  20.0909310  17.7159310  17.9739310  20.0879310   1.8809310
  17.0569310  19.8729310   2.0469310  18.4489310  19.6999310   2.6159310
  17.9169310  20.0109310   1.9959310  14.6159310  24.8339310  15.1519310
  13.9369310  25.4729310  15.3719310  14.2069310  23.9849310  15.3149310
  14.4759310  24.8069310  15.2009310  25.5759310  32.8389310   6.1159310
  25.2079310  33.4199310   6.7809310  26.4669310  33.1619310   5.9819310
  25.6429310  32.9549310   6.1839310  12.7639310  17.7429310  13.7339310
  13.6259310  17.7039310  14.1479310  12.9499310  17.8929310  12.8069310
  12.8979310  17.7569310  13.6679310  23.6809310  25.2759310  11.1009310
  23.4129310  25.9189310  11.7579310  22.8819310  25.0939310  10.6049310
  23.5439310  25.3349310  11.1209310  12.2229310  22.9139310  17.7209310
  11.6229310  23.6469310  17.8619310  12.7699310  22.8969310  18.5069310
  12.2159310  23.0059310  17.8399310  13.5789310  21.8149310   5.7639310
  13.9789310  22.3999310   6.4079310  13.1149310  22.3999310   5.1649310
  13.5709310  21.9649310   5.7699310  23.6579310  23.6099310  13.6629310
  23.4949310  23.9189310  12.7719310  22.7969310  23.3459310  13.9859310
  23.5269310  23.6159310  13.5909310  23.8799310  17.8309310  17.8009310
  23.8769310  17.5409310  16.8889310  23.2079310  18.5119310  17.8379310
  23.7929310  17.8809310  17.6889310  23.5899310  27.2729310  16.1989310
  22.7719310  27.1169310  15.7279310  23.6379310  28.2249310  16.2879310
  23.4919310  27.3749310  16.1499310  27.9399310  21.9689310  17.4299310
  28.6529310  21.3369310  17.5249310  28.3799310  22.8059310  17.2839310
  28.0869310  21.9949310  17.4229310  13.9689310  23.7509310  10.9519310
  13.1899310  24.2569310  11.1829310  13.7069310  22.8379310  11.0749310
  13.8359310  23.6989310  10.9969310  29.4129310  33.2459310  12.9989310
  29.6949310  33.1499310  13.9089310  28.6319310  33.7969310  13.0479310
  29.3489310  33.3039310  13.1219310  17.0649310  27.9079310   8.0579310
  16.9779310  28.6879310   8.6069310  17.1369310  27.1839310   8.6809310
  17.0629310  27.9149310   8.2079310  12.6959310  18.9919310   3.2629310
  12.6389310  18.7379310   2.3419310  12.1479310  19.7739310   3.3309310
  12.6189310  19.0599310   3.1539310  17.1669310  23.0489310  15.2419310
  17.0759310  22.9289310  14.2969310  16.4429310  23.6269310  15.4799310
  17.0629310  23.1079310  15.1509310  18.2489310  16.5649310   6.6939310
  17.8439310  16.2339310   7.4959310  18.3559310  15.7909310   6.1419310
  18.2109310  16.4239310   6.7259310  29.3339310  32.0239310   6.4339310
  29.4039310  31.3949310   7.1509310  29.3999310  31.4919310   5.6409310
  29.3509310  31.8759310   6.4239310  18.7919310  22.6109310   4.5799310
  19.1649310  22.5459310   3.7009310  17.8869310  22.3149310   4.4789310
  18.7239310  22.5639310   4.4549310  18.4909310  29.7679310   3.0139310
  17.7589310  29.2789310   2.6379310  19.1509310  29.7809310   2.3219310
  18.4809310  29.7069310   2.8779310  20.9369310  19.5079310   6.9649310
  20.0849310  19.3699310   6.5529310  20.9869310  20.4549310   7.1009310
  20.8349310  19.6119310   6.9299310  13.4369310  33.1129310  13.5849310
  13.1439310  32.8399310  12.7149310  13.1289310  34.0149310  13.6689310
  13.3599310  33.1929310  13.4839310  15.8089310  20.1759310  16.1559310
  16.5999310  20.2089310  15.6189310  15.4489310  21.0619310  16.1079310
  15.8639310  20.2929310  16.0809310  26.9649310  18.4289310  17.6249310
  27.0259310  18.0819310  16.7349310  26.0249310  18.4769310  17.7989310
  26.8519310  18.3909310  17.5329310  17.3519310  30.4769310  12.9829310
  16.7819310  31.1639310  13.3299310  16.8999310  29.6609310  13.1969310
  17.2209310  30.4609310  13.0549310  23.9439310  32.0579310   4.0739310
  23.2589310  31.9859310   4.7389310  24.7419310  32.2359310   4.5709310
  23.9579310  32.0709310   4.2229310  21.6549310  17.6819310   5.0559310
  21.4299310  18.4669310   5.5549310  22.5539310  17.8339310   4.7639310
  21.7419310  17.8019310   5.0829310  27.0819310  17.4019310   9.9259310
  27.9529310  17.0089310   9.9829310  26.9829310  17.6329310   9.0029310
  27.1809310  17.3809310   9.8149310  23.9899310  17.6689310  15.0599310
  23.7299310  16.8929310  14.5629310  24.9459310  17.6739310  15.0119310
  24.0789310  17.5699310  14.9899310  27.1069310  21.2669310   5.1739310
  26.8859310  21.0169310   6.0719310  27.9229310  20.8009310   4.9909310
  27.1829310  21.1749310   5.2659310  20.9099310  19.8169310  10.3409310
  20.0589310  19.3859310  10.2539310  21.0089310  19.9639310  11.2819310
  20.8129310  19.7809310  10.4499310  19.5409310  16.8379310  17.4919310
  18.9879310  17.1489310  18.2079310  19.6019310  17.5839310  16.8949310
  19.4779310  16.9729310  17.5069310  18.3319310  29.3509310   6.1769310
  17.6959310  28.8959310   6.7279310  17.8439310  30.0849310   5.8039310
  18.1889310  29.3869310   6.1999310  24.2099310  31.0219310  14.3819310
  24.0069310  30.7119310  15.2639310  24.7239310  30.3139310  13.9919310
  24.2499310  30.8909310  14.4449310  29.7979310  21.2909310   3.0099310
  28.9749310  20.8039310   2.9619310  29.5459310  22.1549310   3.3379310
  29.6609310  21.3389310   3.0459310  26.8549310  28.6239310  17.0289310
  26.2149310  28.0909310  17.5009310  26.8169310  28.3009310  16.1279310
  26.7679310  28.5139310  16.9739310  20.6219310  30.9919310  17.1639310
  20.2349310  30.6269310  16.3679310  19.9739310  31.6209310  17.4789310
  20.4889310  31.0249310  17.1029310  12.9819310  30.3459310  14.5329310
  12.5999310  31.1889310  14.7769310  13.8059310  30.5719310  14.1019310
  13.0379310  30.4829310  14.5089310  14.8849310  19.9719310   9.9549310
  14.7909310  19.5049310   9.1249310  15.7079310  19.6489310  10.3199310
  14.9779310  19.8709310   9.8959310  29.5219310  26.4609310  14.8459310
  28.6309310  26.6769310  15.1239310  29.7989310  27.2139310  14.3239310
  29.4429310  26.5849310  14.8149310  28.5899310  28.4829310   5.2779310
  28.6119310  28.5989310   6.2279310  28.7629310  29.3559310   4.9269310
  28.6149310  28.6099310   5.3549310  27.9649310  34.4229310   5.5849310
  27.7009310  34.3879310   4.6659310  28.5869310  33.7019310   5.6839310
  28.0109310  34.3259310   5.4799310  25.1389310  34.4189310   3.0959310
  24.6229310  33.7339310   3.5219310  24.6559310  35.2259310   3.2699310
  25.0109310  34.4339310   3.1729310  17.0479310  19.2299310  11.2109310
  17.4999310  18.6509310  11.8249310  17.6109310  19.2449310  10.4379310
  17.1779310  19.1579310  11.1909310  13.6299310  22.3299310  15.4799310
  13.0639310  22.6909310  14.7979310  13.1339310  22.4459310  16.2899310
  13.4939310  22.3909310  15.4959310  24.8759310  35.9619310  11.3969310
  25.6509310  35.8059310  10.8579310  24.8449310  36.9129310  11.5029310
  24.9709310  36.0639310  11.3419310  21.4459310  32.3739310   5.6259310
  21.2079310  31.5609310   6.0699310  20.6409310  32.6519310   5.1889310
  21.3129310  32.3059310   5.6269310  26.6389310  31.7939310  16.9329310
  26.9089310  30.8899310  17.0929310  25.6869310  31.7809310  17.0339310
  26.5519310  31.6769310  16.9669310  26.9489310  27.4999310  14.6299310
  26.3389310  26.7639310  14.6859310  26.5169310  28.1239310  14.0469310
  26.8159310  27.4849310  14.5629310  16.0469310  28.0879310  13.0549310
  15.5859310  28.4319310  12.2899310  16.1279310  27.1499310  12.8829310
  15.9979310  28.0119310  12.9349310  14.2429310  25.7289310   5.2399310
  15.1989310  25.7609310   5.2669310  13.9719310  26.6459310   5.2779310
  14.3309310  25.8499310   5.2479310  19.0829310  21.1879310  18.1829310
  18.3179310  20.7909310  18.6009310  18.8289310  22.0989310  18.0349310
  18.9519310  21.2539310  18.2179310  15.6019310  19.0189310   3.2109310
  15.9099310  19.0839310   4.1149310  14.6839310  18.7609310   3.2899310
  15.5239310  18.9939310   3.3369310  24.9109310  23.2799310   5.5949310
  25.5309310  23.7239310   5.0159310  24.1009310  23.7839310   5.5099310
  24.8869310  23.4019310   5.5099310  17.2029310  31.4159310   4.8269310
  16.5029310  31.8139310   4.3099310  17.6349310  30.8129310   4.2209310
  17.1689310  31.3899310   4.6829310  25.8039310  29.3589310  12.6489310
  25.6309310  29.2819310  11.7109310  26.5869310  29.9059310  12.7039310
  25.8819310  29.4189310  12.5359310  20.6219310  25.7429310   6.9679310
  21.1359310  25.1429310   6.4279310  20.3479310  26.4329310   6.3639310
  20.6519310  25.7539310   6.8219310  27.6499310  34.3099310  16.2589310
  28.0589310  34.4819310  17.1069310  27.3809310  33.3929310  16.3039310
  27.6679310  34.2149310  16.3729310  26.6639310  18.9719310  14.5269310
  26.3769310  19.7979310  14.9179310  26.4409310  19.0559310  13.5999310
  26.5979310  19.0889310  14.4589310  30.3169310  33.6019310   3.2569310
  30.9039310  33.4249310   2.5219310  29.7259310  34.2819310   2.9329310
  30.3159310  33.6659310   3.1209310  30.1569310  31.9569310  18.2519310
  29.3849310  31.9879310  18.8159310  30.7739310  32.5669310  18.6579310
  30.1369310  32.0389310  18.3769310  30.6789310  20.3079310   7.0129310
  31.2609310  20.7929310   6.4269310  30.1129310  20.9779310   7.3959310
  30.6809310  20.4559310   6.9869310  25.0579310  27.0839310  18.3209310
  24.2469310  27.1219310  17.8139310  25.4219310  26.2209310  18.1259310
  25.0009310  26.9789310  18.2309310  18.3979310  19.1269310   8.8789310
  18.2199310  19.7169310   8.1469310  18.8829310  18.3999310   8.4889310
  18.4369310  19.1099310   8.7359310  12.0029310  25.7169310   7.4559310
  12.5999310  25.9729310   6.7519310  12.3059310  26.2119310   8.2179310
  12.1179310  25.8129310   7.4629310  14.6839310  29.2239310  11.2609310
  14.9429310  29.9169310  10.6529310  13.8119310  29.4829310  11.5599310
  14.6059310  29.3459310  11.2209310  28.3719310  26.8139310   8.2419310
  29.2249310  26.4729310   7.9719310  28.3939310  26.7849310   9.1979310
  28.4839310  26.7659310   8.3289310  21.3019310  23.7249310  16.1469310
  20.5479310  23.3949310  15.6579310  21.1009310  23.5269310  17.0609310
  21.1799310  23.6569310  16.2009310  24.8519310  23.0479310  18.2159310
  24.0679310  23.0089310  18.7639310  25.4889310  22.4969310  18.6699310
  24.8329310  22.9729310  18.3439310  30.4479310  16.8399310   7.7499310
  29.8519310  16.4899310   8.4119310  31.1659310  16.2079310   7.7149310
  30.4639310  16.7149310   7.8299310  26.5179310  27.4849310   3.4569310
  26.9139310  27.8259310   4.2589310  27.0089310  27.9039310   2.7499310
  26.6309310  27.5819310   3.4689310  26.2469310  21.5709310  15.4189310
  26.9399310  21.7649310  16.0509310  25.6109310  22.2769310  15.5369310
  26.2539310  21.6859310  15.5149310  26.7119310  33.8409310  12.8939310
  26.2389310  34.6739310  12.8869310  26.1809310  33.2599310  12.3499310
  26.5829310  33.8729310  12.8239310  16.2229310  13.8309310  70.5779310
  15.2689310  13.7629310  70.5459310  16.4119310  14.1379310  71.4639310
  16.1249310  13.8619310  70.6869310  20.9879310  11.2749310  63.7409310
  20.8139310  11.4359310  64.6689310  20.2229310  10.7889310  63.4349310
  20.8679310  11.2329310  63.8209310  17.5589310   6.1719310  59.0719310
  17.4049310   6.6289310  59.8989310  18.2709310   5.5619310  59.2639310
  17.6299310   6.1519310  59.2019310  27.7199310  12.3309310  57.2579310
  26.8579310  12.6589310  57.0019310  27.6239310  11.3789310  57.2569310
  27.5969310  12.2509310  57.2249310  14.4459310  12.4279310  64.0349310
  14.4839310  13.3209310  63.6909310  13.6469310  12.4069310  64.5609310
  14.3489310  12.5399310  64.0579310  19.1569310  14.2179310  60.7239310
  18.3579310  13.6909310  60.7339310  19.5009310  14.1149310  59.8369310
  19.0989310  14.1369310  60.6119310  23.0649310   9.2029310  63.1909310
  22.6389310   8.5959310  62.5869310  22.4019310   9.8699310  63.3689310
  22.9259310   9.2109310  63.1369310  29.9359310   4.1259310  64.2849310
  29.1569310   4.2359310  64.8299310  30.2799310   5.0119310  64.1759310
  29.8799310   4.2529310  64.3409310  21.2669310   7.4419310  71.7169310
  21.1389310   6.5769310  72.1059310  21.7099310   7.2669310  70.8859310
  21.3069310   7.3089310  71.6599310  24.1429310   8.3939310  58.7359310
  24.9129310   8.4149310  59.3029310  24.4619310   8.0269310  57.9119310
  24.2819310   8.3499310  58.7029310  29.8789310   8.0309310  60.4659310
  29.5129310   8.6719310  61.0759310  29.1139310   7.6089310  60.0739310
  29.7339310   8.0589310  60.4939310  27.8609310   9.6309310  57.4829310
  27.9029310   9.4969310  56.5359310  28.7469310   9.8979310  57.7259310
  27.9799310   9.6479310  57.3929310  13.2639310   8.1089310  72.8669310
  12.3429310   7.8889310  72.7269310  13.3439310   8.2159310  73.8139310
  13.1559310   8.0939310  72.9699310  24.8539310  11.7979310  64.0719310
  25.0299310  12.6479310  63.6689310  24.0949310  11.4609310  63.5979310
  24.7799310  11.8639310  63.9599310  24.6439310  15.1229310  65.3239310
  25.2299310  15.8599310  65.1489310  23.8619310  15.3089310  64.8049310
  24.6189310  15.2409310  65.2349310  16.9659310   2.3779310  63.8439310
  16.5589310   2.3769310  62.9769310  16.4799310   3.0409310  64.3349310
  16.8519310   2.4629310  63.7959310  23.4329310   3.2629310  72.8609310
  24.0189310   3.5759310  73.5499310  22.7069310   3.8879310  72.8609310
  23.4149310   3.3829310  72.9489310  21.0529310   3.7639310  62.3929310
  20.2279310   3.7459310  61.9079310  20.8019310   3.5779310  63.2979310
  20.9149310   3.7379310  62.4469310  18.1669310  13.4289310  67.0099310
  17.9059310  13.0539310  67.8509310  18.8979310  12.8839310  66.7209310
  18.2269310  13.3109310  67.0799310  16.4049310  11.6219310  65.7249310
  15.6809310  11.9249310  65.1769310  16.9989310  12.3719310  65.7729310
  16.3889310  11.7569310  65.6609310  15.8779310   5.3859310  57.0629310
  15.2749310   6.1229310  56.9669310  16.5069310   5.6759310  57.7239310
  15.8809310   5.5169310  57.1349310  20.3049310  13.8479310  58.3559310
  20.7639310  13.0259310  58.5279310  21.0029310  14.4879310  58.2169310
  20.4529310  13.8249310  58.3599310  19.0279310   4.3389310  67.3379310
  19.9089310   4.6309310  67.5699310  19.1139310   4.0049310  66.4449310
  19.1519310   4.3339310  67.2529310  28.4539310   8.1659310  67.6439310
  28.8939310   8.6729310  68.3269310  27.7819310   7.6689310  68.1099310
  28.4249310   8.1669310  67.7909310  29.6689310   9.9339310  69.8719310
  28.9549310  10.5389310  69.6729310  30.3849310  10.4969310  70.1689310
  29.6699310  10.0829310  69.8849310  23.1809310  10.9949310  58.8099310
  23.4849310  10.1019310  58.9659310  23.7079310  11.5349310  59.3989310
  23.2869310  10.9499310  58.9049310  28.4459310   2.3309310  66.7129310
  29.3579310   2.3419310  67.0059310  28.4459310   1.7459310  65.9549310
  28.5629310   2.2569310  66.6539310  26.2909310   6.6679310  68.5639310
  25.4159310   6.4109310  68.2739310  26.6429310   5.8849310  68.9879310
  26.2239310   6.5349310  68.5809310  15.9999310  13.5839310  73.7219310
  15.7479310  14.4879310  73.9129310  16.9049310  13.5189310  74.0249310
  16.0839310  13.6919310  73.7849310  20.6359310   3.1679310  65.0269310
  20.7219310   2.3839310  65.5699310  21.0759310   3.8549310  65.5269310
  20.7029310   3.1559310  65.1599310  29.3139310  11.9079310  60.3629310
  29.4349310  12.7829310  59.9949310  29.5229310  11.3139310  59.6419310
  29.3559310  11.9439310  60.2229310  13.7109310  15.3899310  61.5459310
  12.9299310  15.2589310  61.0079310  13.6809310  16.3149310  61.7899310
  13.6069310  15.4919310  61.5079310  23.7619310  11.1919310  73.4969310
  24.3439310  11.0279310  74.2379310  23.1689310  11.8779310  73.8049310
  23.7599310  11.2589310  73.6309310  20.0639310  11.6559310  66.2359310
  19.5839310  10.8479310  66.4129310  20.7939310  11.6419310  66.8549310
  20.0959310  11.5509310  66.3379310  33.4759310   4.5729310  64.6199310
  33.4899310   4.2599310  65.5249310  33.4269310   5.5259310  64.6969310
  33.4719310   4.6549310  64.7459310  22.8689310   2.5089310  58.5029310
  22.2429310   1.7849310  58.5269310  23.0869310   2.6679310  59.4209310
  22.8169310   2.4369310  58.6229310  19.6069310   4.1569310  70.6229310
  18.7619310   3.8369310  70.9399310  20.0799310   3.3659310  70.3639310
  19.5589310   4.0149310  70.6309310  15.4419310  13.9149310  60.0799310
  14.8599310  14.4129310  60.6529310  15.6709310  14.5259310  59.3799310
  15.3969310  14.0569310  60.0639310  29.0409310   5.4739310  58.5039310
  28.5839310   5.2329310  59.3099310  29.9669310   5.3339310  58.7029310
  29.1009310   5.4249310  58.6329310  18.7959310   8.3829310  71.9849310
  19.6759310   8.0099310  71.9329310  18.2579310   7.8019310  71.4479310
  18.8399310   8.2609310  71.9099310  27.7849310  12.0939310  70.3419310
  27.4339310  11.9909310  71.2269310  27.9329310  13.0359310  70.2519310
  27.7589310  12.2009310  70.4439310  29.9219310  13.8609310  72.2209310
  30.1199310  13.4659310  73.0709310  29.2509310  14.5159310  72.4119310
  29.8609310  13.8939310  72.3539310  25.2399310   6.6399310  71.6339310
  24.6829310   6.2459310  70.9619310  24.6639310   7.2499310  72.0939310
  25.0949310   6.6679310  71.6069310  23.0669310   2.6269310  61.1669310
  22.2439310   2.9099310  61.5629310  23.7449310   3.0129310  61.7219310
  23.0489310   2.7119310  61.2889310  16.0789310   6.2179310  69.2599310
  15.7019310   6.0909310  70.1299310  15.5159310   5.7069310  68.6779310
  15.9589310   6.1369310  69.2969310  25.0859310   7.7279310  64.7149310
  25.6309310   8.2289310  65.3219310  24.3919310   8.3349310  64.4579310
  25.0669310   7.8689310  64.7599310  13.0689310   9.2939310  65.5359310
  13.4629310   9.2239310  64.6659310  13.6809310   8.8389310  66.1129310
  13.1979310   9.2269310  65.4979310  27.7899310   4.9739310  60.9079310
  27.7469310   5.5929310  61.6379310  27.4239310   4.1629310  61.2599310
  27.7379310   4.9499310  61.0469310  22.5399310   5.8379310  61.3869310
  21.8679310   5.1569310  61.4169310  22.6189310   6.0549310  60.4579310
  22.4639310   5.7789310  61.2719310  23.7259310  14.8169310  70.5049310
  23.1769310  14.7479310  69.7249310  24.0899310  13.9399310  70.6209310
  23.7029310  14.6959310  70.4199310  17.2049310   3.1389310  69.3019310
  16.6149310   2.3999310  69.1499310  17.8169310   3.1109310  68.5669310
  17.2079310   3.0409310  69.1879310  18.5899310   9.3309310  67.3339310
  18.5499310   8.3759310  67.2969310  18.1349310   9.5589310  68.1439310
  18.5269310   9.2379310  67.4329310  26.5549310   5.9839310  74.0159310
  25.8639310   5.3439310  74.1839310  26.3469310   6.3399310  73.1529310
  26.4399310   5.9469310  73.9269310  12.1729310   5.0859310  61.1529310
  12.8379310   5.6859310  61.4909310  11.3409310   5.5199310  61.3419310
  12.1519310   5.2179310  61.2209310  14.5059310   9.5309310  63.3549310
  15.1849310   9.2509310  63.9689310  14.6039310  10.4809310  63.3059310
  14.6049310   9.6169310  63.4279310  19.9199310   8.2669310  58.4419310
  19.5369310   7.9579310  57.6209310  20.1589310   9.1779310  58.2669310
  19.9019310   8.3439310  58.3149310  22.4329310  11.9419310  67.7439310
  22.3689310  11.4219310  68.5459310  22.9779310  12.6909310  67.9869310
  22.4939310  11.9709310  67.8779310  27.9319310  10.8379310  64.3629310
  27.0169310  10.8479310  64.0799310  28.0539310   9.9699310  64.7479310
  27.8299310  10.7279310  64.3759310  15.5849310   2.8019310  58.1579310
  14.6599310   2.5589310  58.1959310  15.5809310   3.7219310  57.8929310
  15.4669310   2.8889310  58.1289310  17.5539310   7.1549310  61.4469310
  18.3769310   7.6409310  61.4089310  17.6049310   6.6599310  62.2639310
  17.6659310   7.1539310  61.5459310  14.2449310  15.0299310  65.5229310
  13.7029310  15.4529310  66.1899310  15.1439310  15.2269310  65.7849310
  14.2899310  15.1099310  65.6419310  19.8489310   8.7919310  61.4489310
  19.3259310   9.4949310  61.8349310  19.8609310   8.9879310  60.5129310
  19.7839310   8.9069310  61.3789310  26.8919310   3.6589310  57.6129310
  27.3699310   3.3059310  56.8639310  27.3939310   4.4309310  57.8759310
  27.0169310   3.7129310  57.5509310  15.7859310   9.0949310  72.4429310
  15.7479310   9.4119310  71.5409310  14.9139310   8.7359310  72.6079310
  15.6689310   9.0889310  72.3489310  19.6939310  10.8349310  71.0179310
  18.9109310  11.2409310  70.6489310  19.4059310   9.9639310  71.2909310
  19.5569310  10.7749310  71.0059310  13.4319310  12.8469310  67.7609310
  14.0869310  13.2079310  67.1639310  12.7539310  12.4919310  67.1859310
  13.4289310  12.8479310  67.6109310  18.7199310   6.7919310  69.4969310
  19.0449310   5.9889310  69.9039310  17.8509310   6.5599310  69.1709310
  18.6499310   6.6599310  69.5069310  24.8319310   4.8739310  64.7259310
  25.3299310   4.6669310  63.9349310  25.0159310   5.7989310  64.8899310
  24.9189310   4.9659310  64.6459310  19.4569310   3.6199310  58.4669310
  18.9759310   2.8029310  58.3359310  19.8909310   3.7789310  57.6289310
  19.4509310   3.5359310  58.3429310  13.4209310   8.6569310  58.9249310
  14.1879310   8.3339310  59.3999310  12.6789310   8.4179310  59.4799310
  13.4239310   8.5849310  59.0569310  29.5199310  15.6459310  66.7939310
  29.3729310  14.7029310  66.8749310  30.1739310  15.8439310  67.4649310
  29.5849310  15.5499310  66.8899310  30.8529310  11.9239310  65.5799310
  30.0089310  12.3369310  65.7639310  30.7209310  11.0019310  65.7979310
  30.7279310  11.8589310  65.6309310  12.7589310   2.4129310  67.6209310
  13.5569310   2.0629310  67.2259310  12.7389310   2.0329310  68.4989310
  12.8579310   2.3189310  67.6829310  22.1529310   5.4699310  65.3489310
  21.7459310   6.2299310  64.9329310  23.0149310   5.4049310  64.9389310
  22.2109310   5.5589310  65.2429310  26.6899310   6.7089310  62.8309310
  27.3639310   7.1209310  63.3709310  25.8799310   7.1549310  63.0769310
  26.6729310   6.8189310  62.9309310  14.8439310   7.1999310  66.3339310
  15.8009310   7.1839310  66.3149310  14.5989310   6.3859310  66.7739310
  14.9349310   7.0939310  66.3879310  30.3119310   6.1379310  67.8169310
  29.9229310   5.6639310  68.5529310  29.7769310   6.9269310  67.7309310
  30.1939310   6.1779310  67.8999310  23.6859310   2.6859310  66.6829310
  24.3119310   3.1359310  66.1159310  23.5439310   1.8389310  66.2589310
  23.7479310   2.6349310  66.5559310  22.2209310  10.5629310  70.1819310
  22.6139310  11.3839310  70.4779310  21.3079310  10.6179310  70.4639310
  22.1549310  10.6749310  70.2559310  16.2449310   2.7239310  61.1559310
  16.1549310   2.4529310  60.2429310  15.3469310   2.8809310  61.4489310
  16.1179310   2.7099310  61.0769310  27.4449310   3.8469310  69.3309310
  27.1799310   3.1949310  69.9809310  27.6639310   3.3339310  68.5529310
  27.4389310   3.6979310  69.3149310  18.1909310   5.6399310  63.5559310
  18.3789310   4.8879310  62.9939310  19.0469310   6.0309310  63.7259310
  18.3239310   5.5939310  63.5059310  20.6409310  10.8469310  57.8389310
  21.4849310  10.8089310  58.2899310  20.8639310  11.0519310  56.9309310
  20.7779310  10.8679310  57.7809310  17.6919310   6.6369310  66.1079310
  17.9489310   6.2189310  65.2859310  17.7759310   5.9449310  66.7639310
  17.7359310   6.4949310  66.0869310  25.0039310  11.0919310  66.5669310
  25.1019310  11.3389310  65.6469310  24.1499310  11.4419310  66.8189310
  24.9069310  11.1679310  66.4819310  22.3939310  15.5059310  63.9059310
  22.2089310  14.6789310  63.4599310  22.0819310  16.1789310  63.3009310
  22.3299310  15.4859310  63.7709310  23.9819310  14.7409310  56.9959310
  24.1399310  15.5799310  56.5629310  24.2439310  14.8879310  57.9049310
  24.0359310  14.8669310  57.0569310  26.0919310  13.5179310  67.1059310
  25.5479310  14.1179310  66.5949310  25.7009310  12.6569310  66.9599310
  25.9729310  13.4849310  67.0219310  29.8669310   4.9269310  70.7289310
  28.9709310   4.6019310  70.6419310  29.7669310   5.8219310  71.0539310
  29.7389310   4.9999310  70.7599310  20.1839310  15.8859310  66.0789310
  20.1499310  15.1989310  66.7439310  20.6599310  15.4909310  65.3489310
  20.2399310  15.7479310  66.0709310  22.0629310   6.6139310  58.7669310
  22.7929310   7.2339310  58.7559310  21.2809310   7.1649310  58.7359310
  22.0559310   6.7639310  58.7609310  21.6949310   3.9949310  67.8829310
  21.2459310   3.2409310  68.2649310  22.4169310   3.6149310  67.3829310
  21.7299310   3.8499310  67.8679310  23.2299310   8.1189310  69.5949310
  22.9539310   8.9429310  69.9969310  24.1809310   8.1059310  69.7039310
  23.3169310   8.2229310  69.6599310  22.5859310  15.3419310  67.8439310
  23.3759310  15.8799310  67.7899310  21.9859310  15.7339310  67.2099310
  22.6099310  15.4609310  67.7559310  14.6159310   5.9669310  71.7319310
  13.9369310   6.6059310  71.9519310  14.2069310   5.1179310  71.8949310
  14.4759310   5.9399310  71.7809310  25.5759310  13.9719310  62.6959310
  25.2079310  14.5529310  63.3609310  26.4669310  14.2949310  62.5619310
  25.6429310  14.0879310  62.7639310  23.6809310   6.4089310  67.6809310
  23.4129310   7.0519310  68.3379310  22.8819310   6.2269310  67.1849310
  23.5439310   6.4679310  67.7009310  13.5789310   2.9479310  62.3439310
  13.9789310   3.5329310  62.9879310  13.1149310   3.5329310  61.7449310
  13.5709310   3.0979310  62.3499310  23.6579310   4.7429310  70.2429310
  23.4949310   5.0519310  69.3519310  22.7969310   4.4789310  70.5659310
  23.5269310   4.7489310  70.1709310  16.4549310   9.6629310  58.6729310
  16.5409310   9.6119310  57.7209310  15.9019310  10.4309310  58.8219310
  16.3949310   9.7549310  58.5699310  23.5899310   8.4059310  72.7789310
  22.7719310   8.2499310  72.3079310  23.6379310   9.3579310  72.8679310
  23.4919310   8.5079310  72.7299310  27.9399310   3.1019310  74.0099310
  28.6529310   2.4699310  74.1049310  28.3799310   3.9389310  73.8639310
  28.0869310   3.1279310  74.0029310  13.9689310   4.8839310  67.5319310
  13.1899310   5.3899310  67.7629310  13.7069310   3.9709310  67.6549310
  13.8359310   4.8319310  67.5769310  29.4129310  14.3789310  69.5789310
  29.6949310  14.2829310  70.4889310  28.6319310  14.9299310  69.6279310
  29.3489310  14.4369310  69.7019310  17.0649310   9.0409310  64.6379310
  16.9779310   9.8209310  65.1869310  17.1369310   8.3169310  65.2609310
  17.0629310   9.0479310  64.7879310  17.1669310   4.1819310  71.8219310
  17.0759310   4.0619310  70.8769310  16.4429310   4.7599310  72.0599310
  17.0629310   4.2409310  71.7309310  29.3339310  13.1569310  63.0139310
  29.4039310  12.5279310  63.7309310  29.3999310  12.6249310  62.2209310
  29.3509310  13.0089310  63.0039310  18.7919310   3.7439310  61.1599310
  19.1649310   3.6789310  60.2809310  17.8869310   3.4479310  61.0589310
  18.7239310   3.6969310  61.0349310  18.4909310  10.9009310  59.5939310
  17.7589310  10.4119310  59.2179310  19.1509310  10.9139310  58.9019310
  18.4809310  10.8399310  59.4579310  13.4369310  14.2459310  70.1649310
  13.1439310  13.9729310  69.2949310  13.1289310  15.1479310  70.2489310
  13.3599310  14.3259310  70.0639310  21.9819310   4.3119310  56.7839310
  21.9629310   4.9619310  57.4859310  22.3369310   3.5239310  57.1959310
  22.0249310   4.2949310  56.9259310  17.3519310  11.6099310  69.5629310
  16.7819310  12.2969310  69.9099310  16.8999310  10.7939310  69.7769310
  17.2209310  11.5939310  69.6349310  23.9439310  13.1909310  60.6539310
  23.2589310  13.1189310  61.3189310  24.7419310  13.3689310  61.1509310
  23.9579310  13.2039310  60.8029310  27.1069310   2.3999310  61.7539310
  26.8859310   2.1499310  62.6519310  27.9229310   1.9339310  61.5709310
  27.1829310   2.3079310  61.8459310  24.9529310  12.1629310  56.9009310
  24.5529310  13.0309310  56.9509310  24.4769310  11.6419310  57.5479310
  24.8409310  12.2079310  56.9899310  18.3319310  10.4839310  62.7569310
  17.6959310  10.0289310  63.3079310  17.8439310  11.2179310  62.3839310
  18.1889310  10.5199310  62.7799310  24.2099310  12.1549310  70.9619310
  24.0069310  11.8449310  71.8439310  24.7239310  11.4469310  70.5719310
  24.2499310  12.0239310  71.0249310  29.7979310   2.4239310  59.5899310
  28.9749310   1.9369310  59.5419310  29.5459310   3.2879310  59.9179310
  29.6609310   2.4719310  59.6259310  26.8549310   9.7569310  73.6089310
  26.2149310   9.2239310  74.0809310  26.8169310   9.4339310  72.7079310
  26.7679310   9.6469310  73.5539310  20.6219310  12.1249310  73.7439310
  20.2349310  11.7599310  72.9479310  19.9739310  12.7539310  74.0589310
  20.4889310  12.1579310  73.6829310  12.9819310  11.4789310  71.1129310
  12.5999310  12.3219310  71.3569310  13.8059310  11.7049310  70.6819310
  13.0379310  11.6159310  71.0889310  29.5219310   7.5939310  71.4259310
  28.6309310   7.8099310  71.7039310  29.7989310   8.3469310  70.9039310
  29.4429310   7.7179310  71.3949310  28.5899310   9.6159310  61.8579310
  28.6119310   9.7319310  62.8079310  28.7629310  10.4889310  61.5069310
  28.6149310   9.7429310  61.9349310  27.9649310  15.5559310  62.1649310
  27.7009310  15.5209310  61.2459310  28.5869310  14.8349310  62.2639310
  28.0109310  15.4589310  62.0599310  25.1389310  15.5519310  59.6759310
  24.6229310  14.8669310  60.1019310  24.6559310  16.3589310  59.8499310
  25.0109310  15.5669310  59.7529310  13.6299310   3.4629310  72.0599310
  13.0639310   3.8239310  71.3779310  13.1339310   3.5789310  72.8699310
  13.4939310   3.5239310  72.0759310  24.8759310  17.0949310  67.9769310
  25.6509310  16.9389310  67.4379310  24.8449310  18.0459310  68.0829310
  24.9709310  17.1969310  67.9219310  21.4459310  13.5069310  62.2059310
  21.2079310  12.6939310  62.6499310  20.6409310  13.7849310  61.7689310
  21.3129310  13.4389310  62.2069310  26.6389310  12.9269310  73.5129310
  26.9089310  12.0229310  73.6729310  25.6869310  12.9139310  73.6139310
  26.5519310  12.8099310  73.5469310  26.9489310   8.6329310  71.2099310
  26.3389310   7.8969310  71.2659310  26.5169310   9.2569310  70.6269310
  26.8159310   8.6179310  71.1429310  16.0469310   9.2209310  69.6349310
  15.5859310   9.5649310  68.8699310  16.1279310   8.2829310  69.4629310
  15.9979310   9.1449310  69.5149310  14.2429310   6.8619310  61.8199310
  15.1989310   6.8939310  61.8469310  13.9719310   7.7789310  61.8579310
  14.3309310   6.9829310  61.8279310  24.9109310   4.4129310  62.1749310
  25.5309310   4.8569310  61.5959310  24.1009310   4.9169310  62.0899310
  24.8869310   4.5349310  62.0899310  11.5309310  10.4649310  58.1359310
  12.1589310   9.9419310  58.6349310  12.0249310  10.7709310  57.3749310
  11.6749310  10.4369310  58.1029310  17.2029310  12.5489310  61.4069310
  16.5029310  12.9469310  60.8899310  17.6349310  11.9459310  60.8009310
  17.1689310  12.5229310  61.2629310  25.8039310  10.4919310  69.2289310
  25.6309310  10.4149310  68.2909310  26.5869310  11.0389310  69.2839310
  25.8819310  10.5519310  69.1159310  20.6219310   6.8759310  63.5479310
  21.1359310   6.2759310  63.0079310  20.3479310   7.5659310  62.9439310
  20.6519310   6.8869310  63.4019310  27.6499310  15.4429310  72.8389310
  28.0589310  15.6149310  73.6869310  27.3809310  14.5259310  72.8839310
  27.6679310  15.3479310  72.9529310  13.1089310  14.2309310  57.5939310
  13.6659310  13.4719310  57.7659310  13.6769310  14.9849310  57.7499310
  13.2529310  14.2299310  57.6359310  12.0029310   6.8499310  64.0359310
  12.5999310   7.1059310  63.3319310  12.3059310   7.3449310  64.7979310
  12.1179310   6.9459310  64.0429310  14.6839310  10.3569310  67.8409310
  14.9429310  11.0499310  67.2329310  13.8119310  10.6159310  68.1399310
  14.6059310  10.4789310  67.8009310  28.3719310   7.9469310  64.8219310
  29.2249310   7.6059310  64.5519310  28.3939310   7.9179310  65.7779310
  28.4839310   7.8989310  64.9089310  21.3019310   4.8579310  72.7269310
  20.5479310   4.5279310  72.2379310  21.1009310   4.6599310  73.6409310
  21.1799310   4.7899310  72.7809310  26.5179310   8.6179310  60.0369310
  26.9139310   8.9589310  60.8389310  27.0089310   9.0369310  59.3299310
  26.6309310   8.7149310  60.0489310  26.2469310   2.7039310  71.9989310
  26.9399310   2.8979310  72.6309310  25.6109310   3.4099310  72.1169310
  26.2539310   2.8189310  72.0949310  26.7119310  14.9739310  69.4739310
  26.2389310  15.8069310  69.4669310  26.1809310  14.3929310  68.9299310
  26.5829310  15.0059310  69.4039310  20.9879310  11.2749310  44.8809310
  20.8139310  11.4359310  45.8089310  20.2229310  10.7889310  44.5749310
  20.8679310  11.2329310  44.9609310  17.5589310   6.1719310  40.2119310
  17.4049310   6.6289310  41.0389310  18.2709310   5.5619310  40.4039310
  17.6299310   6.1519310  40.3419310  14.4459310  12.4279310  45.1749310
  14.4839310  13.3209310  44.8309310  13.6469310  12.4069310  45.7009310
  14.3489310  12.5399310  45.1979310  19.1569310  14.2179310  41.8639310
  18.3579310  13.6909310  41.8739310  19.5009310  14.1149310  40.9769310
  19.0989310  14.1369310  41.7519310  23.0649310   9.2029310  44.3309310
  22.6389310   8.5959310  43.7269310  22.4019310   9.8699310  44.5089310
  22.9259310   9.2109310  44.2769310  29.9359310   4.1259310  45.4249310
  29.1569310   4.2359310  45.9699310  30.2799310   5.0119310  45.3159310
  29.8799310   4.2529310  45.4809310  21.2669310   7.4419310  52.8569310
  21.1389310   6.5769310  53.2459310  21.7099310   7.2669310  52.0259310
  21.3069310   7.3089310  52.7999310  24.1429310   8.3939310  39.8759310
  24.9129310   8.4149310  40.4429310  24.4619310   8.0269310  39.0519310
  24.2819310   8.3499310  39.8429310  29.8789310   8.0309310  41.6059310
  29.5129310   8.6719310  42.2159310  29.1139310   7.6089310  41.2139310
  29.7339310   8.0589310  41.6339310  27.8609310   9.6309310  38.6229310
  27.9029310   9.4969310  37.6759310  28.7469310   9.8979310  38.8659310
  27.9799310   9.6479310  38.5329310  13.2639310   8.1089310  54.0069310
  12.3429310   7.8889310  53.8669310  13.3439310   8.2159310  54.9539310
  13.1559310   8.0939310  54.1099310  24.8539310  11.7979310  45.2119310
  25.0299310  12.6479310  44.8089310  24.0949310  11.4609310  44.7379310
  24.7799310  11.8639310  45.0999310  24.6439310  15.1229310  46.4639310
  25.2299310  15.8599310  46.2889310  23.8619310  15.3089310  45.9449310
  24.6189310  15.2409310  46.3749310  16.9659310   2.3779310  44.9839310
  16.5589310   2.3769310  44.1169310  16.4799310   3.0409310  45.4749310
  16.8519310   2.4629310  44.9359310  23.4329310   3.2629310  54.0009310
  24.0189310   3.5759310  54.6899310  22.7069310   3.8879310  54.0009310
  23.4149310   3.3829310  54.0889310  21.0529310   3.7639310  43.5329310
  20.2279310   3.7459310  43.0479310  20.8019310   3.5779310  44.4379310
  20.9149310   3.7379310  43.5869310  18.1669310  13.4289310  48.1499310
  17.9059310  13.0539310  48.9909310  18.8979310  12.8839310  47.8609310
  18.2269310  13.3109310  48.2199310  16.4049310  11.6219310  46.8649310
  15.6809310  11.9249310  46.3169310  16.9989310  12.3719310  46.9129310
  16.3889310  11.7569310  46.8009310  12.9539310   1.7759310  57.0549310
  12.7559310   1.8569310  56.1229310  12.1599310   2.0789310  57.4959310
  12.8269310   1.8249310  56.9919310  15.8779310   5.3859310  38.2029310
  15.2749310   6.1229310  38.1069310  16.5069310   5.6759310  38.8639310
  15.8809310   5.5169310  38.2749310  20.3049310  13.8479310  39.4959310
  20.7639310  13.0259310  39.6679310  21.0029310  14.4879310  39.3569310
  20.4529310  13.8249310  39.4999310  19.0279310   4.3389310  48.4779310
  19.9089310   4.6309310  48.7099310  19.1139310   4.0049310  47.5849310
  19.1519310   4.3339310  48.3929310  12.9219310  10.8019310  55.8119310
  12.1599310  11.3699310  55.6949310  13.1269310  10.4919310  54.9299310
  12.8499310  10.8349310  55.6839310  14.9929310  12.0969310  57.1489310
  15.4759310  12.6579310  56.5419310  14.5499310  11.4609310  56.5879310
  14.9979310  12.0879310  56.9999310  28.4539310   8.1659310  48.7839310
  28.8939310   8.6729310  49.4669310  27.7819310   7.6689310  49.2499310
  28.4249310   8.1669310  48.9309310  29.6689310   9.9339310  51.0119310
  28.9549310  10.5389310  50.8129310  30.3849310  10.4969310  51.3089310
  29.6699310  10.0829310  51.0249310  18.9739310   7.6869310  55.8479310
  18.8169310   6.7429310  55.8119310  18.8849310   7.9789310  54.9409310
  18.9419310   7.6029310  55.7269310  23.1809310  10.9949310  39.9499310
  23.4849310  10.1019310  40.1059310  23.7079310  11.5349310  40.5389310
  23.2869310  10.9499310  40.0449310  28.4459310   2.3309310  47.8529310
  29.3579310   2.3419310  48.1459310  28.4459310   1.7459310  47.0949310
  28.5629310   2.2569310  47.7939310  26.2909310   6.6679310  49.7039310
  25.4159310   6.4109310  49.4139310  26.6429310   5.8849310  50.1279310
  26.2239310   6.5349310  49.7209310  20.6359310   3.1679310  46.1669310
  20.7219310   2.3839310  46.7099310  21.0759310   3.8549310  46.6669310
  20.7029310   3.1559310  46.2999310  29.3139310  11.9079310  41.5029310
  29.4349310  12.7829310  41.1349310  29.5229310  11.3139310  40.7819310
  29.3559310  11.9439310  41.3629310  13.7109310  15.3899310  42.6859310
  12.9299310  15.2589310  42.1479310  13.6809310  16.3149310  42.9299310
  13.6069310  15.4919310  42.6479310  23.7619310  11.1919310  54.6369310
  24.3439310  11.0279310  55.3779310  23.1689310  11.8779310  54.9449310
  23.7599310  11.2589310  54.7709310  20.0639310  11.6559310  47.3759310
  19.5839310  10.8479310  47.5529310  20.7939310  11.6419310  47.9949310
  20.0959310  11.5509310  47.4779310  33.4759310   4.5729310  45.7599310
  33.4899310   4.2599310  46.6649310  33.4269310   5.5259310  45.8369310
  33.4719310   4.6549310  45.8859310  22.8689310   2.5089310  39.6429310
  22.2429310   1.7849310  39.6669310  23.0869310   2.6679310  40.5609310
  22.8169310   2.4369310  39.7629310  19.6069310   4.1569310  51.7629310
  18.7619310   3.8369310  52.0799310  20.0799310   3.3659310  51.5039310
  19.5589310   4.0149310  51.7709310  16.5339310   9.3429310  56.0969310
  17.3449310   8.8549310  55.9549310  16.2649310   9.6199310  55.2209310
  16.6029310   9.3159310  55.9659310  15.4419310  13.9149310  41.2199310
  14.8599310  14.4129310  41.7929310  15.6709310  14.5259310  40.5199310
  15.3969310  14.0569310  41.2039310  29.0409310   5.4739310  39.6439310
  28.5839310   5.2329310  40.4499310  29.9669310   5.3339310  39.8429310
  29.1009310   5.4249310  39.7729310  18.7959310   8.3829310  53.1249310
  19.6759310   8.0099310  53.0729310  18.2579310   7.8019310  52.5879310
  18.8399310   8.2609310  53.0499310  27.7849310  12.0939310  51.4819310
  27.4339310  11.9909310  52.3669310  27.9329310  13.0359310  51.3919310
  27.7589310  12.2009310  51.5839310  25.2399310   6.6399310  52.7739310
  24.6829310   6.2459310  52.1019310  24.6639310   7.2499310  53.2339310
  25.0949310   6.6679310  52.7469310  29.1539310   5.9009310  55.9679310
  28.3309310   6.2409310  55.6189310  29.0099310   5.8449310  56.9129310
  29.0309310   5.9369310  56.0439310  23.0669310   2.6269310  42.3069310
  22.2439310   2.9099310  42.7029310  23.7449310   3.0129310  42.8619310
  23.0489310   2.7119310  42.4289310  16.0789310   6.2179310  50.3999310
  15.7019310   6.0909310  51.2699310  15.5159310   5.7069310  49.8179310
  15.9589310   6.1369310  50.4369310  25.0859310   7.7279310  45.8549310
  25.6309310   8.2289310  46.4619310  24.3919310   8.3349310  45.5979310
  25.0669310   7.8689310  45.8999310  13.0689310   9.2939310  46.6759310
  13.4629310   9.2239310  45.8059310  13.6809310   8.8389310  47.2529310
  13.1979310   9.2269310  46.6379310  27.7899310   4.9739310  42.0479310
  27.7469310   5.5929310  42.7779310  27.4239310   4.1629310  42.3999310
  27.7379310   4.9499310  42.1869310  22.5399310   5.8379310  42.5269310
  21.8679310   5.1569310  42.5569310  22.6189310   6.0549310  41.5979310
  22.4639310   5.7789310  42.4119310  23.7259310  14.8169310  51.6449310
  23.1769310  14.7479310  50.8649310  24.0899310  13.9399310  51.7609310
  23.7029310  14.6959310  51.5599310  18.1599310   4.8119310  55.5959310
  18.0449310   4.5279310  54.6889310  17.2689310   4.9149310  55.9289310
  18.0309310   4.7889310  55.5219310  17.2049310   3.1389310  50.4419310
  16.6149310   2.3999310  50.2899310  17.8169310   3.1109310  49.7069310
  17.2079310   3.0409310  50.3279310  18.5899310   9.3309310  48.4739310
  18.5499310   8.3759310  48.4369310  18.1349310   9.5589310  49.2839310
  18.5269310   9.2379310  48.5729310  26.5549310   5.9839310  55.1559310
  25.8639310   5.3439310  55.3239310  26.3469310   6.3399310  54.2929310
  26.4399310   5.9469310  55.0669310  12.1729310   5.0859310  42.2929310
  12.8379310   5.6859310  42.6309310  11.3409310   5.5199310  42.4819310
  12.1519310   5.2179310  42.3609310  14.5059310   9.5309310  44.4949310
  15.1849310   9.2509310  45.1089310  14.6039310  10.4809310  44.4459310
  14.6049310   9.6169310  44.5679310  19.9199310   8.2669310  39.5819310
  19.5369310   7.9579310  38.7609310  20.1589310   9.1779310  39.4069310
  19.9019310   8.3439310  39.4549310  22.4329310  11.9419310  48.8839310
  22.3689310  11.4219310  49.6859310  22.9779310  12.6909310  49.1269310
  22.4939310  11.9709310  49.0179310  27.9319310  10.8379310  45.5029310
  27.0169310  10.8479310  45.2199310  28.0539310   9.9699310  45.8879310
  27.8299310  10.7279310  45.5159310  15.5849310   2.8019310  39.2979310
  14.6599310   2.5589310  39.3359310  15.5809310   3.7219310  39.0329310
  15.4669310   2.8889310  39.2689310  17.5539310   7.1549310  42.5869310
  18.3769310   7.6409310  42.5489310  17.6049310   6.6599310  43.4039310
  17.6659310   7.1539310  42.6859310  19.8489310   8.7919310  42.5889310
  19.3259310   9.4949310  42.9749310  19.8609310   8.9879310  41.6529310
  19.7839310   8.9069310  42.5189310  26.8919310   3.6589310  38.7529310
  27.3699310   3.3059310  38.0039310  27.3939310   4.4309310  39.0159310
  27.0169310   3.7129310  38.6909310  15.7859310   9.0949310  53.5829310
  15.7479310   9.4119310  52.6809310  14.9139310   8.7359310  53.7479310
  15.6689310   9.0889310  53.4889310  19.6939310  10.8349310  52.1579310
  18.9109310  11.2409310  51.7889310  19.4059310   9.9639310  52.4309310
  19.5569310  10.7749310  52.1459310  18.7199310   6.7919310  50.6369310
  19.0449310   5.9889310  51.0439310  17.8509310   6.5599310  50.3109310
  18.6499310   6.6599310  50.6469310  14.3359310   7.7259310  56.6059310
  15.1389310   8.2359310  56.4959310  13.8859310   8.1439310  57.3399310
  14.3809310   7.8449310  56.6859310  24.8319310   4.8739310  45.8659310
  25.3299310   4.6669310  45.0749310  25.0159310   5.7989310  46.0299310
  24.9189310   4.9659310  45.7859310  19.4569310   3.6199310  39.6069310
  18.9759310   2.8029310  39.4759310  19.8909310   3.7789310  38.7689310
  19.4509310   3.5359310  39.4829310  13.4209310   8.6569310  40.0649310
  14.1879310   8.3339310  40.5399310  12.6789310   8.4179310  40.6199310
  13.4239310   8.5849310  40.1969310  30.8529310  11.9239310  46.7199310
  30.0089310  12.3369310  46.9039310  30.7209310  11.0019310  46.9379310
  30.7279310  11.8589310  46.7709310  12.7589310   2.4129310  48.7609310
  13.5569310   2.0629310  48.3659310  12.7389310   2.0329310  49.6389310
  12.8579310   2.3189310  48.8229310  22.1529310   5.4699310  46.4889310
  21.7459310   6.2299310  46.0729310  23.0149310   5.4049310  46.0789310
  22.2109310   5.5589310  46.3829310  26.6899310   6.7089310  43.9709310
  27.3639310   7.1209310  44.5109310  25.8799310   7.1549310  44.2169310
  26.6729310   6.8189310  44.0709310  14.8439310   7.1999310  47.4739310
  15.8009310   7.1839310  47.4549310  14.5989310   6.3859310  47.9139310
  14.9349310   7.0939310  47.5279310  30.3119310   6.1379310  48.9569310
  29.9229310   5.6639310  49.6929310  29.7769310   6.9269310  48.8709310
  30.1939310   6.1779310  49.0399310  23.6859310   2.6859310  47.8229310
  24.3119310   3.1359310  47.2559310  23.5439310   1.8389310  47.3989310
  23.7479310   2.6349310  47.6959310  22.2209310  10.5629310  51.3219310
  22.6139310  11.3839310  51.6179310  21.3079310  10.6179310  51.6039310
  22.1549310  10.6749310  51.3959310  16.2449310   2.7239310  42.2959310
  16.1549310   2.4529310  41.3829310  15.3469310   2.8809310  42.5889310
  16.1179310   2.7099310  42.2169310  27.4449310   3.8469310  50.4709310
  27.1799310   3.1949310  51.1209310  27.6639310   3.3339310  49.6929310
  27.4389310   3.6979310  50.4549310  18.1909310   5.6399310  44.6959310
  18.3789310   4.8879310  44.1339310  19.0469310   6.0309310  44.8659310
  18.3239310   5.5939310  44.6459310  20.6409310  10.8469310  38.9789310
  21.4849310  10.8089310  39.4299310  20.8639310  11.0519310  38.0709310
  20.7779310  10.8679310  38.9209310  17.6919310   6.6369310  47.2479310
  17.9489310   6.2189310  46.4259310  17.7759310   5.9449310  47.9039310
  17.7359310   6.4949310  47.2269310  25.0039310  11.0919310  47.7069310
  25.1019310  11.3389310  46.7869310  24.1499310  11.4419310  47.9589310
  24.9069310  11.1679310  47.6219310  22.3939310  15.5059310  45.0459310
  22.2089310  14.6789310  44.5999310  22.0819310  16.1789310  44.4409310
  22.3299310  15.4859310  44.9109310  23.9819310  14.7409310  38.1359310
  24.1399310  15.5799310  37.7029310  24.2439310  14.8879310  39.0449310
  24.0359310  14.8669310  38.1969310  26.0919310  13.5179310  48.2459310
  25.5479310  14.1179310  47.7349310  25.7009310  12.6569310  48.0999310
  25.9729310  13.4849310  48.1619310  29.8669310   4.9269310  51.8689310
  28.9709310   4.6019310  51.7819310  29.7669310   5.8219310  52.1939310
  29.7389310   4.9999310  51.8999310  20.1839310  15.8859310  47.2189310
  20.1499310  15.1989310  47.8839310  20.6599310  15.4909310  46.4889310
  20.2399310  15.7479310  47.2109310  22.0629310   6.6139310  39.9069310
  22.7929310   7.2339310  39.8959310  21.2809310   7.1649310  39.8759310
  22.0559310   6.7639310  39.9009310  21.6949310   3.9949310  49.0229310
  21.2459310   3.2409310  49.4049310  22.4169310   3.6149310  48.5229310
  21.7299310   3.8499310  49.0079310  23.2299310   8.1189310  50.7349310
  22.9539310   8.9429310  51.1369310  24.1809310   8.1059310  50.8439310
  23.3169310   8.2229310  50.7999310  22.5859310  15.3419310  48.9839310
  23.3759310  15.8799310  48.9299310  21.9859310  15.7339310  48.3499310
  22.6099310  15.4609310  48.8959310  14.6159310   5.9669310  52.8719310
  13.9369310   6.6059310  53.0919310  14.2069310   5.1179310  53.0349310
  14.4759310   5.9399310  52.9209310  25.5759310  13.9719310  43.8359310
  25.2079310  14.5529310  44.5009310  26.4669310  14.2949310  43.7019310
  25.6429310  14.0879310  43.9039310  23.6809310   6.4089310  48.8209310
  23.4129310   7.0519310  49.4779310  22.8819310   6.2269310  48.3249310
  23.5439310   6.4679310  48.8409310  12.2229310   4.0469310  55.4409310
  11.6229310   4.7799310  55.5819310  12.7699310   4.0299310  56.2269310
  12.2159310   4.1389310  55.5599310  13.5789310   2.9479310  43.4839310
  13.9789310   3.5329310  44.1279310  13.1149310   3.5329310  42.8849310
  13.5709310   3.0979310  43.4899310  23.6579310   4.7429310  51.3829310
  23.4949310   5.0519310  50.4919310  22.7969310   4.4789310  51.7059310
  23.5269310   4.7489310  51.3109310  16.4549310   9.6629310  39.8129310
  16.5409310   9.6119310  38.8609310  15.9019310  10.4309310  39.9619310
  16.3949310   9.7549310  39.7099310  23.5899310   8.4059310  53.9189310
  22.7719310   8.2499310  53.4479310  23.6379310   9.3579310  54.0079310
  23.4919310   8.5079310  53.8699310  27.9399310   3.1019310  55.1499310
  28.6529310   2.4699310  55.2449310  28.3799310   3.9389310  55.0039310
  28.0869310   3.1279310  55.1429310  13.9689310   4.8839310  48.6719310
  13.1899310   5.3899310  48.9029310  13.7069310   3.9709310  48.7949310
  13.8359310   4.8319310  48.7169310  17.0649310   9.0409310  45.7779310
  16.9779310   9.8209310  46.3269310  17.1369310   8.3169310  46.4009310
  17.0629310   9.0479310  45.9279310  17.1669310   4.1819310  52.9619310
  17.0759310   4.0619310  52.0169310  16.4429310   4.7599310  53.1999310
  17.0629310   4.2409310  52.8709310  18.7919310   3.7439310  42.2999310
  19.1649310   3.6789310  41.4209310  17.8869310   3.4479310  42.1989310
  18.7239310   3.6969310  42.1749310  18.4909310  10.9009310  40.7339310
  17.7589310  10.4119310  40.3579310  19.1509310  10.9139310  40.0419310
  18.4809310  10.8399310  40.5979310  21.9819310   4.3119310  37.9239310
  21.9629310   4.9619310  38.6259310  22.3369310   3.5239310  38.3359310
  22.0249310   4.2949310  38.0659310  23.9439310  13.1909310  41.7939310
  23.2589310  13.1189310  42.4589310  24.7419310  13.3689310  42.2909310
  23.9579310  13.2039310  41.9429310  27.1069310   2.3999310  42.8939310
  26.8859310   2.1499310  43.7919310  27.9229310   1.9339310  42.7109310
  27.1829310   2.3079310  42.9859310  24.9529310  12.1629310  38.0409310
  24.5529310  13.0309310  38.0909310  24.4769310  11.6419310  38.6879310
  24.8409310  12.2079310  38.1299310  18.3319310  10.4839310  43.8969310
  17.6959310  10.0289310  44.4479310  17.8439310  11.2179310  43.5239310
  18.1889310  10.5199310  43.9199310  24.2099310  12.1549310  52.1019310
  24.0069310  11.8449310  52.9839310  24.7239310  11.4469310  51.7119310
  24.2499310  12.0239310  52.1649310  29.7979310   2.4239310  40.7299310
  28.9749310   1.9369310  40.6819310  29.5459310   3.2879310  41.0579310
  29.6609310   2.4719310  40.7659310  26.8549310   9.7569310  54.7489310
  26.2149310   9.2239310  55.2209310  26.8169310   9.4339310  53.8479310
  26.7679310   9.6469310  54.6939310  20.6219310  12.1249310  54.8839310
  20.2349310  11.7599310  54.0879310  19.9739310  12.7539310  55.1989310
  20.4889310  12.1579310  54.8229310  29.5219310   7.5939310  52.5659310
  28.6309310   7.8099310  52.8439310  29.7989310   8.3469310  52.0439310
  29.4429310   7.7179310  52.5349310  28.5899310   9.6159310  42.9979310
  28.6119310   9.7319310  43.9479310  28.7629310  10.4889310  42.6469310
  28.6149310   9.7429310  43.0749310  25.1389310  15.5519310  40.8159310
  24.6229310  14.8669310  41.2419310  24.6559310  16.3589310  40.9899310
  25.0109310  15.5669310  40.8929310  13.6299310   3.4629310  53.1999310
  13.0639310   3.8239310  52.5179310  13.1339310   3.5789310  54.0099310
  13.4939310   3.5239310  53.2159310  21.4459310  13.5069310  43.3459310
  21.2079310  12.6939310  43.7899310  20.6409310  13.7849310  42.9089310
  21.3129310  13.4389310  43.3469310  26.9489310   8.6329310  52.3499310
  26.3389310   7.8969310  52.4059310  26.5169310   9.2569310  51.7669310
  26.8159310   8.6179310  52.2829310  16.0469310   9.2209310  50.7749310
  15.5859310   9.5649310  50.0099310  16.1279310   8.2829310  50.6029310
  15.9979310   9.1449310  50.6549310  14.2429310   6.8619310  42.9599310
  15.1989310   6.8939310  42.9869310  13.9719310   7.7789310  42.9979310
  14.3309310   6.9829310  42.9679310  19.0829310   2.3209310  55.9029310
  18.3179310   1.9239310  56.3209310  18.8289310   3.2319310  55.7549310
  18.9519310   2.3869310  55.9379310  24.9109310   4.4129310  43.3149310
  25.5309310   4.8569310  42.7359310  24.1009310   4.9169310  43.2299310
  24.8869310   4.5349310  43.2299310  11.5309310  10.4649310  39.2759310
  12.1589310   9.9419310  39.7749310  12.0249310  10.7709310  38.5149310
  11.6749310  10.4369310  39.2429310  17.2029310  12.5489310  42.5469310
  16.5029310  12.9469310  42.0299310  17.6349310  11.9459310  41.9409310
  17.1689310  12.5229310  42.4029310  25.8039310  10.4919310  50.3689310
  25.6309310  10.4149310  49.4309310  26.5869310  11.0389310  50.4239310
  25.8819310  10.5519310  50.2559310  20.6219310   6.8759310  44.6879310
  21.1359310   6.2759310  44.1479310  20.3479310   7.5659310  44.0839310
  20.6519310   6.8869310  44.5419310  13.1089310  14.2309310  38.7339310
  13.6659310  13.4719310  38.9059310  13.6769310  14.9849310  38.8899310
  13.2529310  14.2299310  38.7759310  30.1569310  13.0899310  55.9719310
  29.3849310  13.1209310  56.5359310  30.7739310  13.6999310  56.3779310
  30.1369310  13.1719310  56.0969310  25.0579310   8.2169310  56.0409310
  24.2469310   8.2549310  55.5339310  25.4219310   7.3539310  55.8459310
  25.0009310   8.1119310  55.9509310  12.0029310   6.8499310  45.1759310
  12.5999310   7.1059310  44.4719310  12.3059310   7.3449310  45.9379310
  12.1179310   6.9459310  45.1829310  14.6839310  10.3569310  48.9809310
  14.9429310  11.0499310  48.3729310  13.8119310  10.6159310  49.2799310
  14.6059310  10.4789310  48.9409310  28.3719310   7.9469310  45.9619310
  29.2249310   7.6059310  45.6919310  28.3939310   7.9179310  46.9179310
  28.4839310   7.8989310  46.0489310  21.3019310   4.8579310  53.8669310
  20.5479310   4.5279310  53.3779310  21.1009310   4.6599310  54.7809310
  21.1799310   4.7899310  53.9209310  24.8519310   4.1809310  55.9359310
  24.0679310   4.1419310  56.4839310  25.4889310   3.6299310  56.3899310
  24.8329310   4.1059310  56.0639310  26.5179310   8.6179310  41.1769310
  26.9139310   8.9589310  41.9789310  27.0089310   9.0369310  40.4699310
  26.6309310   8.7149310  41.1889310  26.2469310   2.7039310  53.1389310
  26.9399310   2.8979310  53.7709310  25.6109310   3.4099310  53.2569310
  26.2539310   2.8189310  53.2349310  16.2229310  13.8309310  32.8579310
  15.2689310  13.7629310  32.8259310  16.4119310  14.1379310  33.7439310
  16.1249310  13.8619310  32.9669310  20.9879310  11.2749310  26.0209310
  20.8139310  11.4359310  26.9489310  20.2229310  10.7889310  25.7149310
  20.8679310  11.2329310  26.1009310  17.5589310   6.1719310  21.3519310
  17.4049310   6.6289310  22.1789310  18.2709310   5.5619310  21.5439310
  17.6299310   6.1519310  21.4819310  27.7199310  12.3309310  19.5379310
  26.8579310  12.6589310  19.2819310  27.6239310  11.3789310  19.5369310
  27.5969310  12.2509310  19.5049310  14.4459310  12.4279310  26.3149310
  14.4839310  13.3209310  25.9709310  13.6469310  12.4069310  26.8409310
  14.3489310  12.5399310  26.3379310  19.1569310  14.2179310  23.0039310
  18.3579310  13.6909310  23.0139310  19.5009310  14.1149310  22.1169310
  19.0989310  14.1369310  22.8919310  23.0649310   9.2029310  25.4709310
  22.6389310   8.5959310  24.8669310  22.4019310   9.8699310  25.6489310
  22.9259310   9.2109310  25.4169310  29.9359310   4.1259310  26.5649310
  29.1569310   4.2359310  27.1099310  30.2799310   5.0119310  26.4559310
  29.8799310   4.2529310  26.6209310  21.2669310   7.4419310  33.9969310
  21.1389310   6.5769310  34.3859310  21.7099310   7.2669310  33.1659310
  21.3069310   7.3089310  33.9399310  24.1429310   8.3939310  21.0159310
  24.9129310   8.4149310  21.5829310  24.4619310   8.0269310  20.1919310
  24.2819310   8.3499310  20.9829310  29.8789310   8.0309310  22.7459310
  29.5129310   8.6719310  23.3559310  29.1139310   7.6089310  22.3539310
  29.7339310   8.0589310  22.7739310  27.8609310   9.6309310  19.7629310
  27.9029310   9.4969310  18.8159310  28.7469310   9.8979310  20.0059310
  27.9799310   9.6479310  19.6729310  13.2639310   8.1089310  35.1469310
  12.3429310   7.8889310  35.0069310  13.3439310   8.2159310  36.0939310
  13.1559310   8.0939310  35.2499310  24.8539310  11.7979310  26.3519310
  25.0299310  12.6479310  25.9489310  24.0949310  11.4609310  25.8779310
  24.7799310  11.8639310  26.2399310  24.6439310  15.1229310  27.6039310
  25.2299310  15.8599310  27.4289310  23.8619310  15.3089310  27.0849310
  24.6189310  15.2409310  27.5149310  16.9659310   2.3779310  26.1239310
  16.5589310   2.3769310  25.2569310  16.4799310   3.0409310  26.6149310
  16.8519310   2.4629310  26.0759310  23.4329310   3.2629310  35.1409310
  24.0189310   3.5759310  35.8299310  22.7069310   3.8879310  35.1409310
  23.4149310   3.3829310  35.2289310  21.0529310   3.7639310  24.6729310
  20.2279310   3.7459310  24.1879310  20.8019310   3.5779310  25.5779310
  20.9149310   3.7379310  24.7269310  18.1669310  13.4289310  29.2899310
  17.9059310  13.0539310  30.1309310  18.8979310  12.8839310  29.0009310
  18.2269310  13.3109310  29.3599310  16.4049310  11.6219310  28.0049310
  15.6809310  11.9249310  27.4569310  16.9989310  12.3719310  28.0529310
  16.3889310  11.7569310  27.9409310  12.9539310   1.7759310  38.1949310
  12.7559310   1.8569310  37.2629310  12.1599310   2.0789310  38.6359310
  12.8269310   1.8249310  38.1319310  15.8779310   5.3859310  19.3429310
  15.2749310   6.1229310  19.2469310  16.5069310   5.6759310  20.0039310
  15.8809310   5.5169310  19.4149310  20.3049310  13.8479310  20.6359310
  20.7639310  13.0259310  20.8079310  21.0029310  14.4879310  20.4969310
  20.4529310  13.8249310  20.6399310  19.0279310   4.3389310  29.6179310
  19.9089310   4.6309310  29.8499310  19.1139310   4.0049310  28.7249310
  19.1519310   4.3339310  29.5329310  12.9219310  10.8019310  36.9519310
  12.1599310  11.3699310  36.8349310  13.1269310  10.4919310  36.0699310
  12.8499310  10.8349310  36.8239310  14.9929310  12.0969310  38.2889310
  15.4759310  12.6579310  37.6819310  14.5499310  11.4609310  37.7279310
  14.9979310  12.0879310  38.1399310  18.6189310  13.8329310  37.0869310
  19.1929310  13.7459310  37.8479310  18.5769310  14.7749310  36.9249310
  18.6869310  13.9419310  37.1629310  28.4539310   8.1659310  29.9239310
  28.8939310   8.6729310  30.6069310  27.7819310   7.6689310  30.3899310
  28.4249310   8.1669310  30.0709310  29.6689310   9.9339310  32.1519310
  28.9549310  10.5389310  31.9529310  30.3849310  10.4969310  32.4489310
  29.6699310  10.0829310  32.1649310  18.9739310   7.6869310  36.9879310
  18.8169310   6.7429310  36.9519310  18.8849310   7.9789310  36.0809310
  18.9419310   7.6029310  36.8669310  23.1809310  10.9949310  21.0899310
  23.4849310  10.1019310  21.2459310  23.7079310  11.5349310  21.6789310
  23.2869310  10.9499310  21.1849310  28.4459310   2.3309310  28.9929310
  29.3579310   2.3419310  29.2859310  28.4459310   1.7459310  28.2349310
  28.5629310   2.2569310  28.9339310  26.2909310   6.6679310  30.8439310
  25.4159310   6.4109310  30.5539310  26.6429310   5.8849310  31.2679310
  26.2239310   6.5349310  30.8609310  15.9999310  13.5839310  36.0019310
  15.7479310  14.4879310  36.1929310  16.9049310  13.5189310  36.3049310
  16.0839310  13.6919310  36.0649310  20.6359310   3.1679310  27.3069310
  20.7219310   2.3839310  27.8499310  21.0759310   3.8549310  27.8069310
  20.7029310   3.1559310  27.4399310  29.3139310  11.9079310  22.6429310
  29.4349310  12.7829310  22.2749310  29.5229310  11.3139310  21.9219310
  29.3559310  11.9439310  22.5029310  13.7109310  15.3899310  23.8259310
  12.9299310  15.2589310  23.2879310  13.6809310  16.3149310  24.0699310
  13.6069310  15.4919310  23.7879310  23.7619310  11.1919310  35.7769310
  24.3439310  11.0279310  36.5179310  23.1689310  11.8779310  36.0849310
  23.7599310  11.2589310  35.9109310  20.0639310  11.6559310  28.5159310
  19.5839310  10.8479310  28.6929310  20.7939310  11.6419310  29.1349310
  20.0959310  11.5509310  28.6179310  33.4759310   4.5729310  26.8999310
  33.4899310   4.2599310  27.8049310  33.4269310   5.5259310  26.9769310
  33.4719310   4.6549310  27.0259310  22.8689310   2.5089310  20.7829310
  22.2429310   1.7849310  20.8069310  23.0869310   2.6679310  21.7009310
  22.8169310   2.4369310  20.9029310  19.6069310   4.1569310  32.9029310
  18.7619310   3.8369310  33.2199310  20.0799310   3.3659310  32.6439310
  19.5589310   4.0149310  32.9109310  16.5339310   9.3429310  37.2369310
  17.3449310   8.8549310  37.0949310  16.2649310   9.6199310  36.3609310
  16.6029310   9.3159310  37.1059310  15.4419310  13.9149310  22.3599310
  14.8599310  14.4129310  22.9329310  15.6709310  14.5259310  21.6599310
  15.3969310  14.0569310  22.3439310  29.0409310   5.4739310  20.7839310
  28.5839310   5.2329310  21.5899310  29.9669310   5.3339310  20.9829310
  29.1009310   5.4249310  20.9129310  18.7959310   8.3829310  34.2649310
  19.6759310   8.0099310  34.2129310  18.2579310   7.8019310  33.7279310
  18.8399310   8.2609310  34.1899310  27.7849310  12.0939310  32.6219310
  27.4339310  11.9909310  33.5069310  27.9329310  13.0359310  32.5319310
  27.7589310  12.2009310  32.7239310  29.9219310  13.8609310  34.5009310
  30.1199310  13.4659310  35.3509310  29.2509310  14.5159310  34.6919310
  29.8609310  13.8939310  34.6339310  25.2399310   6.6399310  33.9139310
  24.6829310   6.2459310  33.2419310  24.6639310   7.2499310  34.3739310
  25.0949310   6.6679310  33.8869310  29.1539310   5.9009310  37.1079310
  28.3309310   6.2409310  36.7589310  29.0099310   5.8449310  38.0529310
  29.0309310   5.9369310  37.1839310  23.0669310   2.6269310  23.4469310
  22.2439310   2.9099310  23.8429310  23.7449310   3.0129310  24.0019310
  23.0489310   2.7119310  23.5689310  16.0789310   6.2179310  31.5399310
  15.7019310   6.0909310  32.4099310  15.5159310   5.7069310  30.9579310
  15.9589310   6.1369310  31.5769310  25.0859310   7.7279310  26.9949310
  25.6309310   8.2289310  27.6019310  24.3919310   8.3349310  26.7379310
  25.0669310   7.8689310  27.0399310  13.0689310   9.2939310  27.8159310
  13.4629310   9.2239310  26.9459310  13.6809310   8.8389310  28.3929310
  13.1979310   9.2269310  27.7779310  27.7899310   4.9739310  23.1879310
  27.7469310   5.5929310  23.9179310  27.4239310   4.1629310  23.5399310
  27.7379310   4.9499310  23.3269310  22.5399310   5.8379310  23.6669310
  21.8679310   5.1569310  23.6969310  22.6189310   6.0549310  22.7379310
  22.4639310   5.7789310  23.5519310  23.7259310  14.8169310  32.7849310
  23.1769310  14.7479310  32.0049310  24.0899310  13.9399310  32.9009310
  23.7029310  14.6959310  32.6999310  18.1599310   4.8119310  36.7359310
  18.0449310   4.5279310  35.8289310  17.2689310   4.9149310  37.0689310
  18.0309310   4.7889310  36.6619310  17.2049310   3.1389310  31.5819310
  16.6149310   2.3999310  31.4299310  17.8169310   3.1109310  30.8469310
  17.2079310   3.0409310  31.4679310  18.5899310   9.3309310  29.6139310
  18.5499310   8.3759310  29.5769310  18.1349310   9.5589310  30.4239310
  18.5269310   9.2379310  29.7129310  26.5549310   5.9839310  36.2959310
  25.8639310   5.3439310  36.4639310  26.3469310   6.3399310  35.4329310
  26.4399310   5.9469310  36.2069310  12.1729310   5.0859310  23.4329310
  12.8379310   5.6859310  23.7709310  11.3409310   5.5199310  23.6219310
  12.1519310   5.2179310  23.5009310  14.5059310   9.5309310  25.6349310
  15.1849310   9.2509310  26.2489310  14.6039310  10.4809310  25.5859310
  14.6049310   9.6169310  25.7079310  19.9199310   8.2669310  20.7219310
  19.5369310   7.9579310  19.9009310  20.1589310   9.1779310  20.5469310
  19.9019310   8.3439310  20.5949310  22.4329310  11.9419310  30.0239310
  22.3689310  11.4219310  30.8259310  22.9779310  12.6909310  30.2669310
  22.4939310  11.9709310  30.1579310  27.9319310  10.8379310  26.6429310
  27.0169310  10.8479310  26.3599310  28.0539310   9.9699310  27.0279310
  27.8299310  10.7279310  26.6559310  15.5849310   2.8019310  20.4379310
  14.6599310   2.5589310  20.4759310  15.5809310   3.7219310  20.1729310
  15.4669310   2.8889310  20.4089310  17.5539310   7.1549310  23.7269310
  18.3769310   7.6409310  23.6889310  17.6049310   6.6599310  24.5439310
  17.6659310   7.1539310  23.8259310  14.2449310  15.0299310  27.8029310
  13.7029310  15.4529310  28.4699310  15.1439310  15.2269310  28.0649310
  14.2899310  15.1099310  27.9219310  19.8489310   8.7919310  23.7289310
  19.3259310   9.4949310  24.1149310  19.8609310   8.9879310  22.7929310
  19.7839310   8.9069310  23.6589310  26.8919310   3.6589310  19.8929310
  27.3699310   3.3059310  19.1439310  27.3939310   4.4309310  20.1559310
  27.0169310   3.7129310  19.8309310  15.7859310   9.0949310  34.7229310
  15.7479310   9.4119310  33.8209310  14.9139310   8.7359310  34.8879310
  15.6689310   9.0889310  34.6289310  19.6939310  10.8349310  33.2979310
  18.9109310  11.2409310  32.9289310  19.4059310   9.9639310  33.5709310
  19.5569310  10.7749310  33.2859310  13.4319310  12.8469310  30.0409310
  14.0869310  13.2079310  29.4439310  12.7539310  12.4919310  29.4659310
  13.4289310  12.8479310  29.8909310  18.7199310   6.7919310  31.7769310
  19.0449310   5.9889310  32.1839310  17.8509310   6.5599310  31.4509310
  18.6499310   6.6599310  31.7869310  14.3359310   7.7259310  37.7459310
  15.1389310   8.2359310  37.6359310  13.8859310   8.1439310  38.4799310
  14.3809310   7.8449310  37.8259310  24.8319310   4.8739310  27.0059310
  25.3299310   4.6669310  26.2149310  25.0159310   5.7989310  27.1699310
  24.9189310   4.9659310  26.9259310  19.4569310   3.6199310  20.7469310
  18.9759310   2.8029310  20.6159310  19.8909310   3.7789310  19.9089310
  19.4509310   3.5359310  20.6229310  13.4209310   8.6569310  21.2049310
  14.1879310   8.3339310  21.6799310  12.6789310   8.4179310  21.7599310
  13.4239310   8.5849310  21.3369310  29.5199310  15.6459310  29.0739310
  29.3729310  14.7029310  29.1549310  30.1739310  15.8439310  29.7449310
  29.5849310  15.5499310  29.1699310  30.8529310  11.9239310  27.8599310
  30.0089310  12.3369310  28.0439310  30.7209310  11.0019310  28.0779310
  30.7279310  11.8589310  27.9109310  12.7589310   2.4129310  29.9009310
  13.5569310   2.0629310  29.5059310  12.7389310   2.0329310  30.7789310
  12.8579310   2.3189310  29.9629310  22.1529310   5.4699310  27.6289310
  21.7459310   6.2299310  27.2129310  23.0149310   5.4049310  27.2189310
  22.2109310   5.5589310  27.5229310  26.6899310   6.7089310  25.1109310
  27.3639310   7.1209310  25.6509310  25.8799310   7.1549310  25.3569310
  26.6729310   6.8189310  25.2109310  14.8439310   7.1999310  28.6139310
  15.8009310   7.1839310  28.5949310  14.5989310   6.3859310  29.0539310
  14.9349310   7.0939310  28.6679310  30.3119310   6.1379310  30.0969310
  29.9229310   5.6639310  30.8329310  29.7769310   6.9269310  30.0109310
  30.1939310   6.1779310  30.1799310  23.6859310   2.6859310  28.9629310
  24.3119310   3.1359310  28.3959310  23.5439310   1.8389310  28.5389310
  23.7479310   2.6349310  28.8359310  22.2209310  10.5629310  32.4619310
  22.6139310  11.3839310  32.7579310  21.3079310  10.6179310  32.7439310
  22.1549310  10.6749310  32.5359310  16.2449310   2.7239310  23.4359310
  16.1549310   2.4529310  22.5229310  15.3469310   2.8809310  23.7289310
  16.1179310   2.7099310  23.3569310  27.4449310   3.8469310  31.6109310
  27.1799310   3.1949310  32.2609310  27.6639310   3.3339310  30.8329310
  27.4389310   3.6979310  31.5949310  18.1909310   5.6399310  25.8359310
  18.3789310   4.8879310  25.2739310  19.0469310   6.0309310  26.0059310
  18.3239310   5.5939310  25.7859310  20.6409310  10.8469310  20.1189310
  21.4849310  10.8089310  20.5699310  20.8639310  11.0519310  19.2109310
  20.7779310  10.8679310  20.0609310  17.6919310   6.6369310  28.3879310
  17.9489310   6.2189310  27.5659310  17.7759310   5.9449310  29.0439310
  17.7359310   6.4949310  28.3669310  25.0039310  11.0919310  28.8469310
  25.1019310  11.3389310  27.9269310  24.1499310  11.4419310  29.0989310
  24.9069310  11.1679310  28.7619310  22.3939310  15.5059310  26.1859310
  22.2089310  14.6789310  25.7399310  22.0819310  16.1789310  25.5809310
  22.3299310  15.4859310  26.0509310  23.9819310  14.7409310  19.2759310
  24.1399310  15.5799310  18.8429310  24.2439310  14.8879310  20.1849310
  24.0359310  14.8669310  19.3369310  26.0919310  13.5179310  29.3859310
  25.5479310  14.1179310  28.8749310  25.7009310  12.6569310  29.2399310
  25.9729310  13.4849310  29.3019310  29.8669310   4.9269310  33.0089310
  28.9709310   4.6019310  32.9219310  29.7669310   5.8219310  33.3339310
  29.7389310   4.9999310  33.0399310  20.1839310  15.8859310  28.3589310
  20.1499310  15.1989310  29.0239310  20.6599310  15.4909310  27.6289310
  20.2399310  15.7479310  28.3509310  22.0629310   6.6139310  21.0469310
  22.7929310   7.2339310  21.0359310  21.2809310   7.1649310  21.0159310
  22.0559310   6.7639310  21.0409310  21.6949310   3.9949310  30.1629310
  21.2459310   3.2409310  30.5449310  22.4169310   3.6149310  29.6629310
  21.7299310   3.8499310  30.1479310  23.2299310   8.1189310  31.8749310
  22.9539310   8.9429310  32.2769310  24.1809310   8.1059310  31.9839310
  23.3169310   8.2229310  31.9399310  22.5859310  15.3419310  30.1239310
  23.3759310  15.8799310  30.0699310  21.9859310  15.7339310  29.4899310
  22.6099310  15.4609310  30.0359310  14.6159310   5.9669310  34.0119310
  13.9369310   6.6059310  34.2319310  14.2069310   5.1179310  34.1749310
  14.4759310   5.9399310  34.0609310  25.5759310  13.9719310  24.9759310
  25.2079310  14.5529310  25.6409310  26.4669310  14.2949310  24.8419310
  25.6429310  14.0879310  25.0439310  23.6809310   6.4089310  29.9609310
  23.4129310   7.0519310  30.6179310  22.8819310   6.2269310  29.4649310
  23.5439310   6.4679310  29.9809310  12.2229310   4.0469310  36.5809310
  11.6229310   4.7799310  36.7219310  12.7699310   4.0299310  37.3669310
  12.2159310   4.1389310  36.6999310  13.5789310   2.9479310  24.6239310
  13.9789310   3.5329310  25.2679310  13.1149310   3.5329310  24.0249310
  13.5709310   3.0979310  24.6299310  23.6579310   4.7429310  32.5229310
  23.4949310   5.0519310  31.6319310  22.7969310   4.4789310  32.8459310
  23.5269310   4.7489310  32.4509310  16.4549310   9.6629310  20.9529310
  16.5409310   9.6119310  20.0009310  15.9019310  10.4309310  21.1019310
  16.3949310   9.7549310  20.8499310  23.5899310   8.4059310  35.0589310
  22.7719310   8.2499310  34.5879310  23.6379310   9.3579310  35.1479310
  23.4919310   8.5079310  35.0099310  27.9399310   3.1019310  36.2899310
  28.6529310   2.4699310  36.3849310  28.3799310   3.9389310  36.1439310
  28.0869310   3.1279310  36.2829310  13.9689310   4.8839310  29.8119310
  13.1899310   5.3899310  30.0429310  13.7069310   3.9709310  29.9349310
  13.8359310   4.8319310  29.8569310  29.4129310  14.3789310  31.8589310
  29.6949310  14.2829310  32.7689310  28.6319310  14.9299310  31.9079310
  29.3489310  14.4369310  31.9819310  17.0649310   9.0409310  26.9179310
  16.9779310   9.8209310  27.4669310  17.1369310   8.3169310  27.5409310
  17.0629310   9.0479310  27.0679310  17.1669310   4.1819310  34.1019310
  17.0759310   4.0619310  33.1569310  16.4429310   4.7599310  34.3399310
  17.0629310   4.2409310  34.0109310  29.3339310  13.1569310  25.2939310
  29.4039310  12.5279310  26.0109310  29.3999310  12.6249310  24.5009310
  29.3509310  13.0089310  25.2839310  18.7919310   3.7439310  23.4399310
  19.1649310   3.6789310  22.5609310  17.8869310   3.4479310  23.3389310
  18.7239310   3.6969310  23.3149310  18.4909310  10.9009310  21.8739310
  17.7589310  10.4119310  21.4979310  19.1509310  10.9139310  21.1819310
  18.4809310  10.8399310  21.7379310  13.4369310  14.2459310  32.4449310
  13.1439310  13.9729310  31.5749310  13.1289310  15.1479310  32.5289310
  13.3599310  14.3259310  32.3439310  21.9819310   4.3119310  19.0639310
  21.9629310   4.9619310  19.7659310  22.3369310   3.5239310  19.4759310
  22.0249310   4.2949310  19.2059310  17.3519310  11.6099310  31.8429310
  16.7819310  12.2969310  32.1899310  16.8999310  10.7939310  32.0569310
  17.2209310  11.5939310  31.9149310  23.9439310  13.1909310  22.9339310
  23.2589310  13.1189310  23.5989310  24.7419310  13.3689310  23.4309310
  23.9579310  13.2039310  23.0829310  27.1069310   2.3999310  24.0339310
  26.8859310   2.1499310  24.9319310  27.9229310   1.9339310  23.8509310
  27.1829310   2.3079310  24.1259310  24.9529310  12.1629310  19.1809310
  24.5529310  13.0309310  19.2309310  24.4769310  11.6419310  19.8279310
  24.8409310  12.2079310  19.2699310  18.3319310  10.4839310  25.0369310
  17.6959310  10.0289310  25.5879310  17.8439310  11.2179310  24.6639310
  18.1889310  10.5199310  25.0599310  24.2099310  12.1549310  33.2419310
  24.0069310  11.8449310  34.1239310  24.7239310  11.4469310  32.8519310
  24.2499310  12.0239310  33.3049310  29.7979310   2.4239310  21.8699310
  28.9749310   1.9369310  21.8219310  29.5459310   3.2879310  22.1979310
  29.6609310   2.4719310  21.9059310  26.8549310   9.7569310  35.8889310
  26.2149310   9.2239310  36.3609310  26.8169310   9.4339310  34.9879310
  26.7679310   9.6469310  35.8339310  20.6219310  12.1249310  36.0239310
  20.2349310  11.7599310  35.2279310  19.9739310  12.7539310  36.3389310
  20.4889310  12.1579310  35.9629310  12.9819310  11.4789310  33.3929310
  12.5999310  12.3219310  33.6369310  13.8059310  11.7049310  32.9619310
  13.0379310  11.6159310  33.3689310  29.5219310   7.5939310  33.7059310
  28.6309310   7.8099310  33.9839310  29.7989310   8.3469310  33.1839310
  29.4429310   7.7179310  33.6749310  28.5899310   9.6159310  24.1379310
  28.6119310   9.7319310  25.0879310  28.7629310  10.4889310  23.7869310
  28.6149310   9.7429310  24.2149310  27.9649310  15.5559310  24.4449310
  27.7009310  15.5209310  23.5259310  28.5869310  14.8349310  24.5439310
  28.0109310  15.4589310  24.3399310  25.1389310  15.5519310  21.9559310
  24.6229310  14.8669310  22.3819310  24.6559310  16.3589310  22.1299310
  25.0109310  15.5669310  22.0329310  13.6299310   3.4629310  34.3399310
  13.0639310   3.8239310  33.6579310  13.1339310   3.5789310  35.1499310
  13.4939310   3.5239310  34.3559310  24.8759310  17.0949310  30.2569310
  25.6509310  16.9389310  29.7179310  24.8449310  18.0459310  30.3629310
  24.9709310  17.1969310  30.2019310  21.4459310  13.5069310  24.4859310
  21.2079310  12.6939310  24.9299310  20.6409310  13.7849310  24.0489310
  21.3129310  13.4389310  24.4869310  26.6389310  12.9269310  35.7929310
  26.9089310  12.0229310  35.9529310  25.6869310  12.9139310  35.8939310
  26.5519310  12.8099310  35.8269310  26.9489310   8.6329310  33.4899310
  26.3389310   7.8969310  33.5459310  26.5169310   9.2569310  32.9069310
  26.8159310   8.6179310  33.4229310  16.0469310   9.2209310  31.9149310
  15.5859310   9.5649310  31.1499310  16.1279310   8.2829310  31.7429310
  15.9979310   9.1449310  31.7949310  14.2429310   6.8619310  24.0999310
  15.1989310   6.8939310  24.1269310  13.9719310   7.7789310  24.1379310
  14.3309310   6.9829310  24.1079310  19.0829310   2.3209310  37.0429310
  18.3179310   1.9239310  37.4609310  18.8289310   3.2319310  36.8949310
  18.9519310   2.3869310  37.0779310  24.9109310   4.4129310  24.4549310
  25.5309310   4.8569310  23.8759310  24.1009310   4.9169310  24.3699310
  24.8869310   4.5349310  24.3699310  11.5309310  10.4649310  20.4159310
  12.1589310   9.9419310  20.9149310  12.0249310  10.7709310  19.6549310
  11.6749310  10.4369310  20.3829310  17.2029310  12.5489310  23.6869310
  16.5029310  12.9469310  23.1699310  17.6349310  11.9459310  23.0809310
  17.1689310  12.5229310  23.5429310  25.8039310  10.4919310  31.5089310
  25.6309310  10.4149310  30.5709310  26.5869310  11.0389310  31.5639310
  25.8819310  10.5519310  31.3959310  20.6219310   6.8759310  25.8279310
  21.1359310   6.2759310  25.2879310  20.3479310   7.5659310  25.2239310
  20.6519310   6.8869310  25.6819310  27.6499310  15.4429310  35.1189310
  28.0589310  15.6149310  35.9669310  27.3809310  14.5259310  35.1639310
  27.6679310  15.3479310  35.2329310  30.3169310  14.7349310  22.1169310
  30.9039310  14.5579310  21.3819310  29.7259310  15.4149310  21.7929310
  30.3159310  14.7989310  21.9809310  13.1089310  14.2309310  19.8739310
  13.6659310  13.4719310  20.0459310  13.6769310  14.9849310  20.0299310
  13.2529310  14.2299310  19.9159310  30.1569310  13.0899310  37.1119310
  29.3849310  13.1209310  37.6759310  30.7739310  13.6999310  37.5179310
  30.1369310  13.1719310  37.2369310  25.0579310   8.2169310  37.1809310
  24.2469310   8.2549310  36.6739310  25.4219310   7.3539310  36.9859310
  25.0009310   8.1119310  37.0909310  12.0029310   6.8499310  26.3159310
  12.5999310   7.1059310  25.6119310  12.3059310   7.3449310  27.0779310
  12.1179310   6.9459310  26.3229310  14.6839310  10.3569310  30.1209310
  14.9429310  11.0499310  29.5129310  13.8119310  10.6159310  30.4199310
  14.6059310  10.4789310  30.0809310  28.3719310   7.9469310  27.1019310
  29.2249310   7.6059310  26.8319310  28.3939310   7.9179310  28.0579310
  28.4839310   7.8989310  27.1889310  21.3019310   4.8579310  35.0069310
  20.5479310   4.5279310  34.5179310  21.1009310   4.6599310  35.9209310
  21.1799310   4.7899310  35.0609310  24.8519310   4.1809310  37.0759310
  24.0679310   4.1419310  37.6239310  25.4889310   3.6299310  37.5299310
  24.8329310   4.1059310  37.2039310  26.5179310   8.6179310  22.3169310
  26.9139310   8.9589310  23.1189310  27.0089310   9.0369310  21.6099310
  26.6309310   8.7149310  22.3289310  26.2469310   2.7039310  34.2789310
  26.9399310   2.8979310  34.9109310  25.6109310   3.4099310  34.3969310
  26.2539310   2.8189310  34.3749310  26.7119310  14.9739310  31.7539310
  26.2389310  15.8069310  31.7469310  26.1809310  14.3929310  31.2099310
  26.5829310  15.0059310  31.6839310  16.2229310  13.8309310  13.9979310
  15.2689310  13.7629310  13.9659310  16.4119310  14.1379310  14.8839310
  16.1249310  13.8619310  14.1069310  20.9879310  11.2749310   7.1609310
  20.8139310  11.4359310   8.0889310  20.2229310  10.7889310   6.8549310
  20.8679310  11.2329310   7.2409310  17.5589310   6.1719310   2.4919310
  17.4049310   6.6289310   3.3189310  18.2709310   5.5619310   2.6839310
  17.6299310   6.1519310   2.6219310  14.4459310  12.4279310   7.4549310
  14.4839310  13.3209310   7.1109310  13.6469310  12.4069310   7.9809310
  14.3489310  12.5399310   7.4779310  19.1569310  14.2179310   4.1439310
  18.3579310  13.6909310   4.1539310  19.5009310  14.1149310   3.2569310
  19.0989310  14.1369310   4.0319310  23.0649310   9.2029310   6.6109310
  22.6389310   8.5959310   6.0069310  22.4019310   9.8699310   6.7889310
  22.9259310   9.2109310   6.5569310  29.9359310   4.1259310   7.7049310
  29.1569310   4.2359310   8.2499310  30.2799310   5.0119310   7.5959310
  29.8799310   4.2529310   7.7609310  21.2669310   7.4419310  15.1369310
  21.1389310   6.5769310  15.5259310  21.7099310   7.2669310  14.3059310
  21.3069310   7.3089310  15.0799310  29.8789310   8.0309310   3.8859310
  29.5129310   8.6719310   4.4959310  29.1139310   7.6089310   3.4939310
  29.7339310   8.0589310   3.9139310  13.2639310   8.1089310  16.2869310
  12.3429310   7.8889310  16.1469310  13.3439310   8.2159310  17.2339310
  13.1559310   8.0939310  16.3899310  24.8539310  11.7979310   7.4919310
  25.0299310  12.6479310   7.0889310  24.0949310  11.4609310   7.0179310
  24.7799310  11.8639310   7.3799310  24.6439310  15.1229310   8.7439310
  25.2299310  15.8599310   8.5689310  23.8619310  15.3089310   8.2249310
  24.6189310  15.2409310   8.6549310  16.9659310   2.3779310   7.2639310
  16.5589310   2.3769310   6.3969310  16.4799310   3.0409310   7.7549310
  16.8519310   2.4629310   7.2159310  23.4329310   3.2629310  16.2809310
  24.0189310   3.5759310  16.9699310  22.7069310   3.8879310  16.2809310
  23.4149310   3.3829310  16.3689310  21.0529310   3.7639310   5.8129310
  20.2279310   3.7459310   5.3279310  20.8019310   3.5779310   6.7179310
  20.9149310   3.7379310   5.8669310  18.1669310  13.4289310  10.4299310
  17.9059310  13.0539310  11.2709310  18.8979310  12.8839310  10.1409310
  18.2269310  13.3109310  10.4999310  16.4049310  11.6219310   9.1449310
  15.6809310  11.9249310   8.5969310  16.9989310  12.3719310   9.1929310
  16.3889310  11.7569310   9.0809310  12.9539310   1.7759310  19.3349310
  12.7559310   1.8569310  18.4029310  12.1599310   2.0789310  19.7759310
  12.8269310   1.8249310  19.2719310  20.3049310  13.8479310   1.7759310
  20.7639310  13.0259310   1.9479310  21.0029310  14.4879310   1.6369310
  20.4529310  13.8249310   1.7799310  19.0279310   4.3389310  10.7579310
  19.9089310   4.6309310  10.9899310  19.1139310   4.0049310   9.8649310
  19.1519310   4.3339310  10.6729310  12.9219310  10.8019310  18.0919310
  12.1599310  11.3699310  17.9749310  13.1269310  10.4919310  17.2099310
  12.8499310  10.8349310  17.9639310  14.9929310  12.0969310  19.4289310
  15.4759310  12.6579310  18.8219310  14.5499310  11.4609310  18.8679310
  14.9979310  12.0879310  19.2799310  18.6189310  13.8329310  18.2269310
  19.1929310  13.7459310  18.9879310  18.5769310  14.7749310  18.0649310
  18.6869310  13.9419310  18.3029310  28.4539310   8.1659310  11.0639310
  28.8939310   8.6729310  11.7469310  27.7819310   7.6689310  11.5299310
  28.4249310   8.1669310  11.2109310  29.6689310   9.9339310  13.2919310
  28.9549310  10.5389310  13.0929310  30.3849310  10.4969310  13.5889310
  29.6699310  10.0829310  13.3049310  18.9739310   7.6869310  18.1279310
  18.8169310   6.7429310  18.0919310  18.8849310   7.9789310  17.2209310
  18.9419310   7.6029310  18.0069310  23.1809310  10.9949310   2.2299310
  23.4849310  10.1019310   2.3859310  23.7079310  11.5349310   2.8189310
  23.2869310  10.9499310   2.3249310  28.4459310   2.3309310  10.1329310
  29.3579310   2.3419310  10.4259310  28.4459310   1.7459310   9.3749310
  28.5629310   2.2569310  10.0739310  26.2909310   6.6679310  11.9839310
  25.4159310   6.4109310  11.6939310  26.6429310   5.8849310  12.4079310
  26.2239310   6.5349310  12.0009310  15.9999310  13.5839310  17.1419310
  15.7479310  14.4879310  17.3329310  16.9049310  13.5189310  17.4449310
  16.0839310  13.6919310  17.2049310  20.6359310   3.1679310   8.4469310
  20.7219310   2.3839310   8.9899310  21.0759310   3.8549310   8.9469310
  20.7029310   3.1559310   8.5799310  29.3139310  11.9079310   3.7829310
  29.4349310  12.7829310   3.4149310  29.5229310  11.3139310   3.0619310
  29.3559310  11.9439310   3.6429310  13.7109310  15.3899310   4.9659310
  12.9299310  15.2589310   4.4279310  13.6809310  16.3149310   5.2099310
  13.6069310  15.4919310   4.9279310  23.7619310  11.1919310  16.9169310
  24.3439310  11.0279310  17.6579310  23.1689310  11.8779310  17.2249310
  23.7599310  11.2589310  17.0509310  20.0639310  11.6559310   9.6559310
  19.5839310  10.8479310   9.8329310  20.7939310  11.6419310  10.2749310
  20.0959310  11.5509310   9.7579310  33.4759310   4.5729310   8.0399310
  33.4899310   4.2599310   8.9449310  33.4269310   5.5259310   8.1169310
  33.4719310   4.6549310   8.1659310  22.8689310   2.5089310   1.9229310
  22.2429310   1.7849310   1.9469310  23.0869310   2.6679310   2.8409310
  22.8169310   2.4369310   2.0429310  19.6069310   4.1569310  14.0429310
  18.7619310   3.8369310  14.3599310  20.0799310   3.3659310  13.7839310
  19.5589310   4.0149310  14.0509310  16.5339310   9.3429310  18.3769310
  17.3449310   8.8549310  18.2349310  16.2649310   9.6199310  17.5009310
  16.6029310   9.3159310  18.2459310  15.4419310  13.9149310   3.4999310
  14.8599310  14.4129310   4.0729310  15.6709310  14.5259310   2.7999310
  15.3969310  14.0569310   3.4839310  29.0409310   5.4739310   1.9239310
  28.5839310   5.2329310   2.7299310  29.9669310   5.3339310   2.1229310
  29.1009310   5.4249310   2.0529310  18.7959310   8.3829310  15.4049310
  19.6759310   8.0099310  15.3529310  18.2579310   7.8019310  14.8679310
  18.8399310   8.2609310  15.3299310  27.7849310  12.0939310  13.7619310
  27.4339310  11.9909310  14.6469310  27.9329310  13.0359310  13.6719310
  27.7589310  12.2009310  13.8639310  29.9219310  13.8609310  15.6409310
  30.1199310  13.4659310  16.4909310  29.2509310  14.5159310  15.8319310
  29.8609310  13.8939310  15.7739310  25.2399310   6.6399310  15.0539310
  24.6829310   6.2459310  14.3819310  24.6639310   7.2499310  15.5139310
  25.0949310   6.6679310  15.0269310  29.1539310   5.9009310  18.2479310
  28.3309310   6.2409310  17.8989310  29.0099310   5.8449310  19.1929310
  29.0309310   5.9369310  18.3239310  23.0669310   2.6269310   4.5869310
  22.2439310   2.9099310   4.9829310  23.7449310   3.0129310   5.1419310
  23.0489310   2.7119310   4.7089310  16.0789310   6.2179310  12.6799310
  15.7019310   6.0909310  13.5499310  15.5159310   5.7069310  12.0979310
  15.9589310   6.1369310  12.7169310  25.0859310   7.7279310   8.1349310
  25.6309310   8.2289310   8.7419310  24.3919310   8.3349310   7.8779310
  25.0669310   7.8689310   8.1799310  13.0689310   9.2939310   8.9559310
  13.4629310   9.2239310   8.0859310  13.6809310   8.8389310   9.5329310
  13.1979310   9.2269310   8.9179310  27.7899310   4.9739310   4.3279310
  27.7469310   5.5929310   5.0579310  27.4239310   4.1629310   4.6799310
  27.7379310   4.9499310   4.4669310  22.5399310   5.8379310   4.8069310
  21.8679310   5.1569310   4.8369310  22.6189310   6.0549310   3.8779310
  22.4639310   5.7789310   4.6919310  23.7259310  14.8169310  13.9249310
  23.1769310  14.7479310  13.1449310  24.0899310  13.9399310  14.0409310
  23.7029310  14.6959310  13.8399310  18.1599310   4.8119310  17.8759310
  18.0449310   4.5279310  16.9689310  17.2689310   4.9149310  18.2089310
  18.0309310   4.7889310  17.8019310  17.2049310   3.1389310  12.7219310
  16.6149310   2.3999310  12.5699310  17.8169310   3.1109310  11.9869310
  17.2079310   3.0409310  12.6079310  18.5899310   9.3309310  10.7539310
  18.5499310   8.3759310  10.7169310  18.1349310   9.5589310  11.5639310
  18.5269310   9.2379310  10.8529310  26.5549310   5.9839310  17.4359310
  25.8639310   5.3439310  17.6039310  26.3469310   6.3399310  16.5729310
  26.4399310   5.9469310  17.3469310  12.1729310   5.0859310   4.5729310
  12.8379310   5.6859310   4.9109310  11.3409310   5.5199310   4.7619310
  12.1519310   5.2179310   4.6409310  14.5059310   9.5309310   6.7749310
  15.1849310   9.2509310   7.3889310  14.6039310  10.4809310   6.7259310
  14.6049310   9.6169310   6.8479310  22.4329310  11.9419310  11.1639310
  22.3689310  11.4219310  11.9659310  22.9779310  12.6909310  11.4069310
  22.4939310  11.9709310  11.2979310  27.9319310  10.8379310   7.7829310
  27.0169310  10.8479310   7.4999310  28.0539310   9.9699310   8.1679310
  27.8299310  10.7279310   7.7959310  17.5539310   7.1549310   4.8669310
  18.3769310   7.6409310   4.8289310  17.6049310   6.6599310   5.6839310
  17.6659310   7.1539310   4.9659310  14.2449310  15.0299310   8.9429310
  13.7029310  15.4529310   9.6099310  15.1439310  15.2269310   9.2049310
  14.2899310  15.1099310   9.0619310  19.8489310   8.7919310   4.8689310
  19.3259310   9.4949310   5.2549310  19.8609310   8.9879310   3.9329310
  19.7839310   8.9069310   4.7989310  15.7859310   9.0949310  15.8629310
  15.7479310   9.4119310  14.9609310  14.9139310   8.7359310  16.0279310
  15.6689310   9.0889310  15.7689310  19.6939310  10.8349310  14.4379310
  18.9109310  11.2409310  14.0689310  19.4059310   9.9639310  14.7109310
  19.5569310  10.7749310  14.4259310  13.4319310  12.8469310  11.1809310
  14.0869310  13.2079310  10.5839310  12.7539310  12.4919310  10.6059310
  13.4289310  12.8479310  11.0309310  18.7199310   6.7919310  12.9169310
  19.0449310   5.9889310  13.3239310  17.8509310   6.5599310  12.5909310
  18.6499310   6.6599310  12.9269310  14.3359310   7.7259310  18.8859310
  15.1389310   8.2359310  18.7759310  13.8859310   8.1439310  19.6199310
  14.3809310   7.8449310  18.9659310  24.8319310   4.8739310   8.1459310
  25.3299310   4.6669310   7.3549310  25.0159310   5.7989310   8.3099310
  24.9189310   4.9659310   8.0659310  13.4209310   8.6569310   2.3449310
  14.1879310   8.3339310   2.8199310  12.6789310   8.4179310   2.8999310
  13.4239310   8.5849310   2.4769310  29.5199310  15.6459310  10.2139310
  29.3729310  14.7029310  10.2949310  30.1739310  15.8439310  10.8849310
  29.5849310  15.5499310  10.3099310  30.8529310  11.9239310   8.9999310
  30.0089310  12.3369310   9.1839310  30.7209310  11.0019310   9.2179310
  30.7279310  11.8589310   9.0509310  12.7589310   2.4129310  11.0409310
  13.5569310   2.0629310  10.6459310  12.7389310   2.0329310  11.9189310
  12.8579310   2.3189310  11.1029310  22.1529310   5.4699310   8.7689310
  21.7459310   6.2299310   8.3529310  23.0149310   5.4049310   8.3589310
  22.2109310   5.5589310   8.6629310  26.6899310   6.7089310   6.2509310
  27.3639310   7.1209310   6.7909310  25.8799310   7.1549310   6.4969310
  26.6729310   6.8189310   6.3509310  14.8439310   7.1999310   9.7539310
  15.8009310   7.1839310   9.7349310  14.5989310   6.3859310  10.1939310
  14.9349310   7.0939310   9.8079310  30.3119310   6.1379310  11.2369310
  29.9229310   5.6639310  11.9729310  29.7769310   6.9269310  11.1509310
  30.1939310   6.1779310  11.3199310  23.6859310   2.6859310  10.1029310
  24.3119310   3.1359310   9.5359310  23.5439310   1.8389310   9.6789310
  23.7479310   2.6349310   9.9759310  22.2209310  10.5629310  13.6019310
  22.6139310  11.3839310  13.8979310  21.3079310  10.6179310  13.8839310
  22.1549310  10.6749310  13.6759310  16.2449310   2.7239310   4.5759310
  16.1549310   2.4529310   3.6629310  15.3469310   2.8809310   4.8689310
  16.1179310   2.7099310   4.4969310  27.4449310   3.8469310  12.7509310
  27.1799310   3.1949310  13.4009310  27.6639310   3.3339310  11.9729310
  27.4389310   3.6979310  12.7349310  18.1909310   5.6399310   6.9759310
  18.3789310   4.8879310   6.4139310  19.0469310   6.0309310   7.1459310
  18.3239310   5.5939310   6.9259310  17.6919310   6.6369310   9.5279310
  17.9489310   6.2189310   8.7059310  17.7759310   5.9449310  10.1839310
  17.7359310   6.4949310   9.5069310  25.0039310  11.0919310   9.9869310
  25.1019310  11.3389310   9.0669310  24.1499310  11.4419310  10.2389310
  24.9069310  11.1679310   9.9019310  22.3939310  15.5059310   7.3259310
  22.2089310  14.6789310   6.8799310  22.0819310  16.1789310   6.7209310
  22.3299310  15.4859310   7.1909310  26.0919310  13.5179310  10.5259310
  25.5479310  14.1179310  10.0149310  25.7009310  12.6569310  10.3799310
  25.9729310  13.4849310  10.4419310  29.8669310   4.9269310  14.1489310
  28.9709310   4.6019310  14.0619310  29.7669310   5.8219310  14.4739310
  29.7389310   4.9999310  14.1799310  20.1839310  15.8859310   9.4989310
  20.1499310  15.1989310  10.1639310  20.6599310  15.4909310   8.7689310
  20.2399310  15.7479310   9.4909310  22.0629310   6.6139310   2.1869310
  22.7929310   7.2339310   2.1759310  21.2809310   7.1649310   2.1559310
  22.0559310   6.7639310   2.1809310  21.6949310   3.9949310  11.3029310
  21.2459310   3.2409310  11.6849310  22.4169310   3.6149310  10.8029310
  21.7299310   3.8499310  11.2879310  23.2299310   8.1189310  13.0149310
  22.9539310   8.9429310  13.4169310  24.1809310   8.1059310  13.1239310
  23.3169310   8.2229310  13.0799310  22.5859310  15.3419310  11.2639310
  23.3759310  15.8799310  11.2099310  21.9859310  15.7339310  10.6299310
  22.6099310  15.4609310  11.1759310  14.6159310   5.9669310  15.1519310
  13.9369310   6.6059310  15.3719310  14.2069310   5.1179310  15.3149310
  14.4759310   5.9399310  15.2009310  25.5759310  13.9719310   6.1159310
  25.2079310  14.5529310   6.7809310  26.4669310  14.2949310   5.9819310
  25.6429310  14.0879310   6.1839310  23.6809310   6.4089310  11.1009310
  23.4129310   7.0519310  11.7579310  22.8819310   6.2269310  10.6049310
  23.5439310   6.4679310  11.1209310  12.2229310   4.0469310  17.7209310
  11.6229310   4.7799310  17.8619310  12.7699310   4.0299310  18.5069310
  12.2159310   4.1389310  17.8399310  13.5789310   2.9479310   5.7639310
  13.9789310   3.5329310   6.4079310  13.1149310   3.5329310   5.1649310
  13.5709310   3.0979310   5.7699310  23.6579310   4.7429310  13.6629310
  23.4949310   5.0519310  12.7719310  22.7969310   4.4789310  13.9859310
  23.5269310   4.7489310  13.5909310  23.5899310   8.4059310  16.1989310
  22.7719310   8.2499310  15.7279310  23.6379310   9.3579310  16.2879310
  23.4919310   8.5079310  16.1499310  27.9399310   3.1019310  17.4299310
  28.6529310   2.4699310  17.5249310  28.3799310   3.9389310  17.2839310
  28.0869310   3.1279310  17.4229310  13.9689310   4.8839310  10.9519310
  13.1899310   5.3899310  11.1829310  13.7069310   3.9709310  11.0749310
  13.8359310   4.8319310  10.9969310  29.4129310  14.3789310  12.9989310
  29.6949310  14.2829310  13.9089310  28.6319310  14.9299310  13.0479310
  29.3489310  14.4369310  13.1219310  17.0649310   9.0409310   8.0579310
  16.9779310   9.8209310   8.6069310  17.1369310   8.3169310   8.6809310
  17.0629310   9.0479310   8.2079310  17.1669310   4.1819310  15.2419310
  17.0759310   4.0619310  14.2969310  16.4429310   4.7599310  15.4799310
  17.0629310   4.2409310  15.1509310  29.3339310  13.1569310   6.4339310
  29.4039310  12.5279310   7.1509310  29.3999310  12.6249310   5.6409310
  29.3509310  13.0089310   6.4239310  18.7919310   3.7439310   4.5799310
  19.1649310   3.6789310   3.7009310  17.8869310   3.4479310   4.4789310
  18.7239310   3.6969310   4.4549310  18.4909310  10.9009310   3.0139310
  17.7589310  10.4119310   2.6379310  19.1509310  10.9139310   2.3219310
  18.4809310  10.8399310   2.8779310  13.4369310  14.2459310  13.5849310
  13.1439310  13.9729310  12.7149310  13.1289310  15.1479310  13.6689310
  13.3599310  14.3259310  13.4839310  17.3519310  11.6099310  12.9829310
  16.7819310  12.2969310  13.3299310  16.8999310  10.7939310  13.1969310
  17.2209310  11.5939310  13.0549310  23.9439310  13.1909310   4.0739310
  23.2589310  13.1189310   4.7389310  24.7419310  13.3689310   4.5709310
  23.9579310  13.2039310   4.2229310  27.1069310   2.3999310   5.1739310
  26.8859310   2.1499310   6.0719310  27.9229310   1.9339310   4.9909310
  27.1829310   2.3079310   5.2659310  18.3319310  10.4839310   6.1769310
  17.6959310  10.0289310   6.7279310  17.8439310  11.2179310   5.8039310
  18.1889310  10.5199310   6.1999310  24.2099310  12.1549310  14.3819310
  24.0069310  11.8449310  15.2639310  24.7239310  11.4469310  13.9919310
  24.2499310  12.0239310  14.4449310  29.7979310   2.4239310   3.0099310
  28.9749310   1.9369310   2.9619310  29.5459310   3.2879310   3.3379310
  29.6609310   2.4719310   3.0459310  26.8549310   9.7569310  17.0289310
  26.2149310   9.2239310  17.5009310  26.8169310   9.4339310  16.1279310
  26.7679310   9.6469310  16.9739310  20.6219310  12.1249310  17.1639310
  20.2349310  11.7599310  16.3679310  19.9739310  12.7539310  17.4789310
  20.4889310  12.1579310  17.1029310  12.9819310  11.4789310  14.5329310
  12.5999310  12.3219310  14.7769310  13.8059310  11.7049310  14.1019310
  13.0379310  11.6159310  14.5089310  29.5219310   7.5939310  14.8459310
  28.6309310   7.8099310  15.1239310  29.7989310   8.3469310  14.3239310
  29.4429310   7.7179310  14.8149310  28.5899310   9.6159310   5.2779310
  28.6119310   9.7319310   6.2279310  28.7629310  10.4889310   4.9269310
  28.6149310   9.7429310   5.3549310  27.9649310  15.5559310   5.5849310
  27.7009310  15.5209310   4.6659310  28.5869310  14.8349310   5.6839310
  28.0109310  15.4589310   5.4799310  25.1389310  15.5519310   3.0959310
  24.6229310  14.8669310   3.5219310  24.6559310  16.3589310   3.2699310
  25.0109310  15.5669310   3.1729310  13.6299310   3.4629310  15.4799310
  13.0639310   3.8239310  14.7979310  13.1339310   3.5789310  16.2899310
  13.4939310   3.5239310  15.4959310  24.8759310  17.0949310  11.3969310
  25.6509310  16.9389310  10.8579310  24.8449310  18.0459310  11.5029310
  24.9709310  17.1969310  11.3419310  21.4459310  13.5069310   5.6259310
  21.2079310  12.6939310   6.0699310  20.6409310  13.7849310   5.1889310
  21.3129310  13.4389310   5.6269310  26.6389310  12.9269310  16.9329310
  26.9089310  12.0229310  17.0929310  25.6869310  12.9139310  17.0339310
  26.5519310  12.8099310  16.9669310  26.9489310   8.6329310  14.6299310
  26.3389310   7.8969310  14.6859310  26.5169310   9.2569310  14.0469310
  26.8159310   8.6179310  14.5629310  16.0469310   9.2209310  13.0549310
  15.5859310   9.5649310  12.2899310  16.1279310   8.2829310  12.8829310
  15.9979310   9.1449310  12.9349310  14.2429310   6.8619310   5.2399310
  15.1989310   6.8939310   5.2669310  13.9719310   7.7789310   5.2779310
  14.3309310   6.9829310   5.2479310  19.0829310   2.3209310  18.1829310
  18.3179310   1.9239310  18.6009310  18.8289310   3.2319310  18.0349310
  18.9519310   2.3869310  18.2179310  24.9109310   4.4129310   5.5949310
  25.5309310   4.8569310   5.0159310  24.1009310   4.9169310   5.5099310
  24.8869310   4.5349310   5.5099310  17.2029310  12.5489310   4.8269310
  16.5029310  12.9469310   4.3099310  17.6349310  11.9459310   4.2209310
  17.1689310  12.5229310   4.6829310  25.8039310  10.4919310  12.6489310
  25.6309310  10.4149310  11.7109310  26.5869310  11.0389310  12.7039310
  25.8819310  10.5519310  12.5359310  20.6219310   6.8759310   6.9679310
  21.1359310   6.2759310   6.4279310  20.3479310   7.5659310   6.3639310
  20.6519310   6.8869310   6.8219310  27.6499310  15.4429310  16.2589310
  28.0589310  15.6149310  17.1069310  27.3809310  14.5259310  16.3039310
  27.6679310  15.3479310  16.3729310  30.3169310  14.7349310   3.2569310
  30.9039310  14.5579310   2.5219310  29.7259310  15.4149310   2.9329310
  30.3159310  14.7989310   3.1209310  30.1569310  13.0899310  18.2519310
  29.3849310  13.1209310  18.8159310  30.7739310  13.6999310  18.6579310
  30.1369310  13.1719310  18.3769310  25.0579310   8.2169310  18.3209310
  24.2469310   8.2549310  17.8139310  25.4219310   7.3539310  18.1259310
  25.0009310   8.1119310  18.2309310  12.0029310   6.8499310   7.4559310
  12.5999310   7.1059310   6.7519310  12.3059310   7.3449310   8.2179310
  12.1179310   6.9459310   7.4629310  14.6839310  10.3569310  11.2609310
  14.9429310  11.0499310  10.6529310  13.8119310  10.6159310  11.5599310
  14.6059310  10.4789310  11.2209310  28.3719310   7.9469310   8.2419310
  29.2249310   7.6059310   7.9719310  28.3939310   7.9179310   9.1979310
  28.4839310   7.8989310   8.3289310  21.3019310   4.8579310  16.1469310
  20.5479310   4.5279310  15.6579310  21.1009310   4.6599310  17.0609310
  21.1799310   4.7899310  16.2009310  24.8519310   4.1809310  18.2159310
  24.0679310   4.1419310  18.7639310  25.4889310   3.6299310  18.6699310
  24.8329310   4.1059310  18.3439310  26.5179310   8.6179310   3.4569310
  26.9139310   8.9589310   4.2589310  27.0089310   9.0369310   2.7499310
  26.6309310   8.7149310   3.4689310  26.2469310   2.7039310  15.4189310
  26.9399310   2.8979310  16.0509310  25.6109310   3.4099310  15.5369310
  26.2539310   2.8189310  15.5149310  26.7119310  14.9739310  12.8939310
  26.2389310  15.8069310  12.8869310  26.1809310  14.3929310  12.3499310
  26.5829310  15.0059310  12.8239310   4.5169310  57.8079310  70.9449310
   4.6949310  56.9259310  71.2709310   4.8359310  58.3879310  71.6369310
   4.5809310  57.7689310  71.0759310   4.2049310  65.8039310  63.1909310
   3.7789310  65.1969310  62.5869310   3.5419310  66.4709310  63.3689310
   4.0659310  65.8119310  63.1369310   9.9569310  56.4359310  62.4439310
  10.0249310  55.4889310  62.3199310  10.8259310  56.7009310  62.7449310
  10.0769310  56.3489310  62.4669310  11.0759310  60.7269310  64.2849310
  10.2969310  60.8369310  64.8299310  11.4199310  61.6129310  64.1759310
  11.0199310  60.8539310  64.3409310   2.1719310  56.8549310  58.4329310
   1.9059310  56.3919310  59.2279310   2.1879310  56.1779310  57.7569310
   2.1399310  56.7089310  58.4489310   2.4069310  64.0429310  71.7169310
   2.2789310  63.1779310  72.1059310   2.8499310  63.8679310  70.8859310
   2.4469310  63.9099310  71.6599310   5.2829310  64.9949310  58.7359310
   6.0529310  65.0159310  59.3029310   5.6019310  64.6279310  57.9119310
   5.4219310  64.9509310  58.7029310  11.0189310  64.6319310  60.4659310
  10.6529310  65.2729310  61.0759310  10.2539310  64.2099310  60.0739310
  10.8739310  64.6599310  60.4939310   9.0009310  66.2319310  57.4829310
   9.0429310  66.0979310  56.5359310   9.8869310  66.4989310  57.7259310
   9.1199310  66.2489310  57.3929310   9.3439310  56.6619310  59.5709310
   9.4759310  56.5179310  60.5079310   8.4759310  57.0609310  59.5109310
   9.2499310  56.6939310  59.6839310   4.5729310  59.8639310  72.8609310
   5.1589310  60.1769310  73.5499310   3.8469310  60.4889310  72.8609310
   4.5549310  59.9839310  72.9489310   4.4649310  56.7589310  65.5219310
   3.5129310  56.6959310  65.5929310   4.7929310  56.0309310  66.0499310
   4.3849310  56.6579310  65.5989310   9.5939310  64.7669310  67.6439310
  10.0339310  65.2739310  68.3269310   8.9219310  64.2699310  68.1099310
   9.5649310  64.7679310  67.7909310  10.8089310  66.5349310  69.8719310
  10.0949310  67.1399310  69.6729310  11.5249310  67.0979310  70.1689310
  10.8099310  66.6839310  69.8849310   6.9439310  58.0839310  59.3859310
   7.0479310  58.4279310  60.2729310   6.8139310  58.8599310  58.8409310
   6.9409310  58.2269310  59.4299310   9.5859310  58.9319310  66.7129310
  10.4979310  58.9429310  67.0059310   9.5859310  58.3469310  65.9549310
   9.7029310  58.8579310  66.6539310   7.4309310  63.2689310  68.5639310
   6.5559310  63.0119310  68.2739310   7.7829310  62.4859310  68.9879310
   7.3639310  63.1359310  68.5809310   1.7759310  59.7689310  65.0269310
   1.8619310  58.9849310  65.5699310   2.2159310  60.4559310  65.5269310
   1.8429310  59.7569310  65.1599310  10.4379310  57.3869310  74.3669310
   9.5389310  57.0589310  74.3619310  10.7629310  57.2099310  73.4849310
  10.3639310  57.3219310  74.2539310   8.8719310  53.9079310  59.2409310
   8.9999310  54.8229310  58.9889310   7.9229310  53.8129310  59.3259310
   8.7669310  54.0129310  59.2199310  12.0469310  55.2459310  57.2419310
  11.8709310  56.0869310  56.8209310  11.2379310  54.7469310  57.1279310
  11.9209310  55.2899310  57.1739310  14.6159310  61.1739310  64.6199310
  14.6299310  60.8609310  65.5249310  14.5669310  62.1269310  64.6969310
  14.6119310  61.2559310  64.7459310   4.0089310  59.1099310  58.5029310
   3.3829310  58.3859310  58.5269310   4.2269310  59.2689310  59.4209310
   3.9569310  59.0379310  58.6229310  10.4749310  56.6249310  71.7979310
   9.6089310  56.4609310  71.4269310  11.0569310  56.0329310  71.3199310
  10.4389310  56.5279310  71.6889310  10.1809310  62.0749310  58.5039310
   9.7239310  61.8339310  59.3099310  11.1069310  61.9349310  58.7029310
  10.2409310  62.0259310  58.6329310   8.3059310  57.7919310  64.0919310
   9.0019310  57.4059310  63.5589310   7.6959310  57.0699310  64.2469310
   8.3169310  57.6499310  64.0429310   6.3799310  63.2409310  71.6339310
   5.8229310  62.8469310  70.9619310   5.8039310  63.8509310  72.0939310
   6.2349310  63.2689310  71.6069310   4.2069310  59.2279310  61.1669310
   3.3839310  59.5109310  61.5629310   4.8849310  59.6139310  61.7219310
   4.1889310  59.3129310  61.2889310   6.2259310  64.3289310  64.7149310
   6.7709310  64.8299310  65.3219310   5.5319310  64.9359310  64.4579310
   6.2069310  64.4699310  64.7599310   8.9299310  61.5749310  60.9079310
   8.8869310  62.1939310  61.6379310   8.5639310  60.7639310  61.2599310
   8.8779310  61.5509310  61.0469310   3.6799310  62.4389310  61.3869310
   3.0079310  61.7579310  61.4169310   3.7589310  62.6559310  60.4579310
   3.6039310  62.3799310  61.2719310   7.6949310  62.5849310  74.0159310
   7.0039310  61.9449310  74.1839310   7.4869310  62.9409310  73.1529310
   7.5799310  62.5479310  73.9269310   5.1189310  56.8869310  62.6619310
   4.8249310  57.6019310  62.0979310   4.8479310  57.1479310  63.5419310
   5.0469310  57.0119310  62.7019310   9.0719310  67.4389310  64.3629310
   8.1569310  67.4489310  64.0799310   9.1939310  66.5709310  64.7479310
   8.9699310  67.3289310  64.3759310   8.0319310  60.2599310  57.6129310
   8.5099310  59.9069310  56.8639310   8.5339310  61.0319310  57.8759310
   8.1569310  60.3139310  57.5509310   9.8839310  51.3399310  67.0119310
  10.0299310  51.7449310  67.8669310   8.9389310  51.4079310  66.8729310
   9.7819310  51.3999310  67.1039310   5.9719310  61.4749310  64.7259310
   6.4699310  61.2679310  63.9349310   6.1559310  62.3999310  64.8899310
   6.0589310  61.5669310  64.6459310   3.2929310  62.0709310  65.3489310
   2.8859310  62.8309310  64.9329310   4.1549310  62.0059310  64.9389310
   3.3509310  62.1599310  65.2429310   7.8299310  63.3099310  62.8309310
   8.5039310  63.7219310  63.3709310   7.0199310  63.7559310  63.0769310
   7.8129310  63.4199310  62.9309310   6.2869310  57.8109310  68.8729310
   5.8329310  58.2529310  68.1549310   5.7449310  57.9859310  69.6419310
   6.1599310  57.8899310  68.8789310  11.4519310  62.7389310  67.8169310
  11.0629310  62.2649310  68.5529310  10.9169310  63.5279310  67.7309310
  11.3339310  62.7789310  67.8999310   4.8259310  59.2869310  66.6829310
   5.4519310  59.7369310  66.1159310   4.6839310  58.4399310  66.2589310
   4.8879310  59.2359310  66.5559310   4.8499310  56.0319310  59.4389310
   4.0909310  56.2799310  58.9109310   5.4049310  56.8119310  59.4399310
   4.8239310  56.1639310  59.3719310   6.9719310  55.2159310  63.9519310
   6.3099310  55.6219310  63.3919310   7.6669310  54.9529310  63.3489310
   6.9759310  55.2349310  63.8029310   8.5849310  60.4479310  69.3309310
   8.3199310  59.7959310  69.9809310   8.8039310  59.9349310  68.5529310
   8.5789310  60.2989310  69.3149310   1.7809310  67.4479310  57.8389310
   2.6249310  67.4099310  58.2899310   2.0039310  67.6529310  56.9309310
   1.9179310  67.4689310  57.7809310  11.0069310  61.5279310  70.7289310
  10.1109310  61.2029310  70.6419310  10.9069310  62.4229310  71.0539310
  10.8789310  61.6009310  70.7599310   3.2029310  63.2149310  58.7669310
   3.9329310  63.8349310  58.7559310   2.4209310  63.7659310  58.7359310
   3.1959310  63.3649310  58.7609310   2.8349310  60.5959310  67.8829310
   2.3859310  59.8419310  68.2649310   3.5569310  60.2159310  67.3829310
   2.8699310  60.4509310  67.8679310   4.3699310  64.7199310  69.5949310
   4.0939310  65.5439310  69.9969310   5.3209310  64.7069310  69.7039310
   4.4569310  64.8239310  69.6599310   4.8209310  63.0099310  67.6809310
   4.5529310  63.6529310  68.3379310   4.0219310  62.8279310  67.1849310
   4.6839310  63.0689310  67.7009310   4.7979310  61.3439310  70.2429310
   4.6349310  61.6529310  69.3519310   3.9369310  61.0799310  70.5659310
   4.6669310  61.3499310  70.1709310   5.0199310  55.5649310  74.3809310
   5.0169310  55.2749310  73.4689310   4.3479310  56.2459310  74.4179310
   4.9329310  55.6149310  74.2689310   4.7299310  65.0069310  72.7789310
   3.9119310  64.8509310  72.3079310   4.7779310  65.9589310  72.8679310
   4.6319310  65.1089310  72.7299310   9.0799310  59.7029310  74.0099310
   9.7929310  59.0709310  74.1049310   9.5199310  60.5399310  73.8639310
   9.2269310  59.7289310  74.0029310   3.1219310  60.9129310  56.7839310
   3.1029310  61.5629310  57.4859310   3.4769310  60.1249310  57.1959310
   3.1649310  60.8959310  56.9259310   8.1049310  56.1629310  74.2049310
   8.1659310  55.8159310  73.3149310   7.1649310  56.2109310  74.3789310
   7.9919310  56.1249310  74.1129310   2.7949310  55.4159310  61.6359310
   2.5699310  56.2009310  62.1349310   3.6939310  55.5679310  61.3439310
   2.8819310  55.5359310  61.6629310   8.2219310  55.1359310  66.5059310
   9.0929310  54.7429310  66.5629310   8.1229310  55.3669310  65.5829310
   8.3209310  55.1149310  66.3949310   5.1299310  55.4029310  71.6399310
   4.8699310  54.6269310  71.1429310   6.0859310  55.4079310  71.5919310
   5.2189310  55.3039310  71.5699310   8.2469310  59.0009310  61.7539310
   8.0259310  58.7509310  62.6519310   9.0629310  58.5349310  61.5709310
   8.3229310  58.9089310  61.8459310  10.9379310  59.0249310  59.5899310
  10.1149310  58.5379310  59.5419310  10.6859310  59.8889310  59.9179310
  10.8009310  59.0729310  59.6259310   7.9949310  66.3579310  73.6089310
   7.3549310  65.8249310  74.0809310   7.9569310  66.0349310  72.7079310
   7.9079310  66.2479310  73.5539310  10.6619310  64.1949310  71.4259310
   9.7709310  64.4109310  71.7039310  10.9389310  64.9479310  70.9039310
  10.5829310  64.3189310  71.3949310   9.7299310  66.2169310  61.8579310
   9.7519310  66.3329310  62.8079310   9.9029310  67.0899310  61.5069310
   9.7549310  66.3439310  61.9349310   8.0889310  65.2339310  71.2099310
   7.4789310  64.4979310  71.2659310   7.6569310  65.8579310  70.6269310
   7.9559310  65.2189310  71.1429310   6.0509310  61.0139310  62.1749310
   6.6709310  61.4579310  61.5959310   5.2409310  61.5179310  62.0899310
   6.0269310  61.1359310  62.0899310   6.9439310  67.0929310  69.2289310
   6.7709310  67.0159310  68.2909310   7.7269310  67.6399310  69.2839310
   7.0219310  67.1529310  69.1159310   7.8039310  56.7059310  71.1069310
   7.5169310  57.5319310  71.4979310   7.5809310  56.7899310  70.1799310
   7.7379310  56.8229310  71.0389310  11.8189310  58.0419310  63.5929310
  12.4009310  58.5269310  63.0069310  11.2529310  58.7119310  63.9759310
  11.8209310  58.1899310  63.5669310   9.5119310  64.5479310  64.8219310
  10.3649310  64.2069310  64.5519310   9.5339310  64.5189310  65.7779310
   9.6239310  64.4999310  64.9089310   2.4419310  61.4589310  72.7269310
   1.6879310  61.1289310  72.2379310   2.2409310  61.2609310  73.6409310
   2.3199310  61.3909310  72.7809310  11.5879310  54.5739310  64.3299310
  10.9919310  54.2239310  64.9919310  12.3059310  53.9419310  64.2949310
  11.6039310  54.4489310  64.4099310   7.6579310  65.2189310  60.0369310
   8.0539310  65.5599310  60.8389310   8.1489310  65.6379310  59.3299310
   7.7709310  65.3159310  60.0489310   7.3869310  59.3049310  71.9989310
   8.0799310  59.4989310  72.6309310   6.7509310  60.0109310  72.1169310
   7.3939310  59.4199310  72.0949310   2.6319310  54.4189310  57.0949310
   3.5239310  54.1899310  56.8309310   2.1099310  54.2979310  56.3019310
   2.6799310  54.3749310  56.9599310   4.5169310  57.8079310  52.0849310
   4.6949310  56.9259310  52.4109310   4.8359310  58.3879310  52.7769310
   4.5809310  57.7689310  52.2159310   9.9569310  56.4359310  43.5839310
  10.0249310  55.4889310  43.4599310  10.8259310  56.7009310  43.8849310
  10.0769310  56.3489310  43.6069310  11.0759310  60.7269310  45.4249310
  10.2969310  60.8369310  45.9699310  11.4199310  61.6129310  45.3159310
  11.0199310  60.8539310  45.4809310   2.1719310  56.8549310  39.5729310
   1.9059310  56.3919310  40.3679310   2.1879310  56.1779310  38.8969310
   2.1399310  56.7089310  39.5889310   2.4069310  64.0429310  52.8569310
   2.2789310  63.1779310  53.2459310   2.8499310  63.8679310  52.0259310
   2.4469310  63.9099310  52.7999310   5.2829310  64.9949310  39.8759310
   6.0529310  65.0159310  40.4429310   5.6019310  64.6279310  39.0519310
   5.4219310  64.9509310  39.8429310  11.0189310  64.6319310  41.6059310
  10.6529310  65.2729310  42.2159310  10.2539310  64.2099310  41.2139310
  10.8739310  64.6599310  41.6339310   9.0009310  66.2319310  38.6229310
   9.0429310  66.0979310  37.6759310   9.8869310  66.4989310  38.8659310
   9.1199310  66.2489310  38.5329310   9.3439310  56.6619310  40.7109310
   9.4759310  56.5179310  41.6479310   8.4759310  57.0609310  40.6509310
   9.2499310  56.6939310  40.8239310   4.5729310  59.8639310  54.0009310
   5.1589310  60.1769310  54.6899310   3.8469310  60.4889310  54.0009310
   4.5549310  59.9839310  54.0889310   4.4649310  56.7589310  46.6619310
   3.5129310  56.6959310  46.7329310   4.7929310  56.0309310  47.1899310
   4.3849310  56.6579310  46.7389310   9.5939310  64.7669310  48.7839310
  10.0339310  65.2739310  49.4669310   8.9219310  64.2699310  49.2499310
   9.5649310  64.7679310  48.9309310  10.8089310  66.5349310  51.0119310
  10.0949310  67.1399310  50.8129310  11.5249310  67.0979310  51.3089310
  10.8099310  66.6839310  51.0249310   6.9439310  58.0839310  40.5259310
   7.0479310  58.4279310  41.4129310   6.8139310  58.8599310  39.9809310
   6.9409310  58.2269310  40.5699310   9.5859310  58.9319310  47.8529310
  10.4979310  58.9429310  48.1459310   9.5859310  58.3469310  47.0949310
   9.7029310  58.8579310  47.7939310   7.4309310  63.2689310  49.7039310
   6.5559310  63.0119310  49.4139310   7.7829310  62.4859310  50.1279310
   7.3639310  63.1359310  49.7209310  10.4379310  57.3869310  55.5069310
   9.5389310  57.0589310  55.5019310  10.7629310  57.2099310  54.6249310
  10.3639310  57.3219310  55.3939310   8.8719310  53.9079310  40.3809310
   8.9999310  54.8229310  40.1289310   7.9229310  53.8129310  40.4659310
   8.7669310  54.0129310  40.3599310  12.0469310  55.2459310  38.3819310
  11.8709310  56.0869310  37.9609310  11.2379310  54.7469310  38.2679310
  11.9209310  55.2899310  38.3139310  14.6159310  61.1739310  45.7599310
  14.6299310  60.8609310  46.6649310  14.5669310  62.1269310  45.8369310
  14.6119310  61.2559310  45.8859310   4.0089310  59.1099310  39.6429310
   3.3829310  58.3859310  39.6669310   4.2269310  59.2689310  40.5609310
   3.9569310  59.0379310  39.7629310  10.4749310  56.6249310  52.9379310
   9.6089310  56.4609310  52.5669310  11.0569310  56.0329310  52.4599310
  10.4389310  56.5279310  52.8289310  10.1809310  62.0749310  39.6439310
   9.7239310  61.8339310  40.4499310  11.1069310  61.9349310  39.8429310
  10.2409310  62.0259310  39.7729310   8.3059310  57.7919310  45.2319310
   9.0019310  57.4059310  44.6989310   7.6959310  57.0699310  45.3869310
   8.3169310  57.6499310  45.1829310   6.3799310  63.2409310  52.7739310
   5.8229310  62.8469310  52.1019310   5.8039310  63.8509310  53.2339310
   6.2349310  63.2689310  52.7469310  10.2939310  62.5019310  55.9679310
   9.4709310  62.8419310  55.6189310  10.1499310  62.4459310  56.9129310
  10.1709310  62.5379310  56.0439310   4.2069310  59.2279310  42.3069310
   3.3839310  59.5109310  42.7029310   4.8849310  59.6139310  42.8619310
   4.1889310  59.3129310  42.4289310   6.2259310  64.3289310  45.8549310
   6.7709310  64.8299310  46.4619310   5.5319310  64.9359310  45.5979310
   6.2069310  64.4699310  45.8999310   8.9299310  61.5749310  42.0479310
   8.8869310  62.1939310  42.7779310   8.5639310  60.7639310  42.3999310
   8.8779310  61.5509310  42.1869310   3.6799310  62.4389310  42.5269310
   3.0079310  61.7579310  42.5569310   3.7589310  62.6559310  41.5979310
   3.6039310  62.3799310  42.4119310   7.6949310  62.5849310  55.1559310
   7.0039310  61.9449310  55.3239310   7.4869310  62.9409310  54.2929310
   7.5799310  62.5479310  55.0669310   5.1189310  56.8869310  43.8019310
   4.8249310  57.6019310  43.2379310   4.8479310  57.1479310  44.6819310
   5.0469310  57.0119310  43.8419310   9.0719310  67.4389310  45.5029310
   8.1569310  67.4489310  45.2199310   9.1939310  66.5709310  45.8879310
   8.9699310  67.3289310  45.5159310   8.0319310  60.2599310  38.7529310
   8.5099310  59.9069310  38.0039310   8.5339310  61.0319310  39.0159310
   8.1569310  60.3139310  38.6909310   9.8839310  51.3399310  48.1519310
  10.0299310  51.7449310  49.0069310   8.9389310  51.4079310  48.0129310
   9.7819310  51.3999310  48.2439310   5.9719310  61.4749310  45.8659310
   6.4699310  61.2679310  45.0749310   6.1559310  62.3999310  46.0299310
   6.0589310  61.5669310  45.7859310   7.8299310  63.3099310  43.9709310
   8.5039310  63.7219310  44.5109310   7.0199310  63.7559310  44.2169310
   7.8129310  63.4199310  44.0709310   6.2869310  57.8109310  50.0129310
   5.8329310  58.2529310  49.2949310   5.7449310  57.9859310  50.7819310
   6.1599310  57.8899310  50.0189310  11.4519310  62.7389310  48.9569310
  11.0629310  62.2649310  49.6929310  10.9169310  63.5279310  48.8709310
  11.3339310  62.7789310  49.0399310   4.8259310  59.2869310  47.8229310
   5.4519310  59.7369310  47.2559310   4.6839310  58.4399310  47.3989310
   4.8879310  59.2359310  47.6959310   4.8499310  56.0319310  40.5789310
   4.0909310  56.2799310  40.0509310   5.4049310  56.8119310  40.5799310
   4.8239310  56.1639310  40.5119310   6.9719310  55.2159310  45.0919310
   6.3099310  55.6219310  44.5319310   7.6669310  54.9529310  44.4889310
   6.9759310  55.2349310  44.9429310   8.5849310  60.4479310  50.4709310
   8.3199310  59.7959310  51.1209310   8.8039310  59.9349310  49.6929310
   8.5789310  60.2989310  50.4549310   1.7809310  67.4479310  38.9789310
   2.6249310  67.4099310  39.4299310   2.0039310  67.6529310  38.0709310
   1.9179310  67.4689310  38.9209310   9.6379310  53.9769310  56.6709310
   9.0969310  53.4619310  57.2689310   9.1739310  54.8099310  56.5839310
   9.5099310  54.0179310  56.7369310  11.0069310  61.5279310  51.8689310
  10.1109310  61.2029310  51.7819310  10.9069310  62.4229310  52.1939310
  10.8789310  61.6009310  51.8999310   3.2029310  63.2149310  39.9069310
   3.9329310  63.8349310  39.8959310   2.4209310  63.7659310  39.8759310
   3.1959310  63.3649310  39.9009310   2.8349310  60.5959310  49.0229310
   2.3859310  59.8419310  49.4049310   3.5569310  60.2159310  48.5229310
   2.8699310  60.4509310  49.0079310   4.3699310  64.7199310  50.7349310
   4.0939310  65.5439310  51.1369310   5.3209310  64.7069310  50.8439310
   4.4569310  64.8239310  50.7999310   3.5089310  57.6769310  55.4249310
   3.0429310  58.2749310  56.0089310   4.1039310  58.2409310  54.9299310
   3.5249310  57.8249310  55.4359310   4.8209310  63.0099310  48.8209310
   4.5529310  63.6529310  49.4779310   4.0219310  62.8279310  48.3249310
   4.6839310  63.0689310  48.8409310   4.7979310  61.3439310  51.3829310
   4.6349310  61.6529310  50.4919310   3.9369310  61.0799310  51.7059310
   4.6669310  61.3499310  51.3109310   5.0199310  55.5649310  55.5209310
   5.0169310  55.2749310  54.6089310   4.3479310  56.2459310  55.5579310
   4.9329310  55.6149310  55.4089310   4.7299310  65.0069310  53.9189310
   3.9119310  64.8509310  53.4479310   4.7779310  65.9589310  54.0079310
   4.6319310  65.1089310  53.8699310   9.0799310  59.7029310  55.1499310
   9.7929310  59.0709310  55.2449310   9.5199310  60.5399310  55.0039310
   9.2269310  59.7289310  55.1429310   3.1219310  60.9129310  37.9239310
   3.1029310  61.5629310  38.6259310   3.4769310  60.1249310  38.3359310
   3.1649310  60.8959310  38.0659310   8.1049310  56.1629310  55.3449310
   8.1659310  55.8159310  54.4549310   7.1649310  56.2109310  55.5189310
   7.9919310  56.1249310  55.2529310   2.7949310  55.4159310  42.7759310
   2.5699310  56.2009310  43.2749310   3.6939310  55.5679310  42.4839310
   2.8819310  55.5359310  42.8029310   8.2219310  55.1359310  47.6459310
   9.0929310  54.7429310  47.7029310   8.1229310  55.3669310  46.7229310
   8.3209310  55.1149310  47.5349310   5.1299310  55.4029310  52.7799310
   4.8699310  54.6269310  52.2829310   6.0859310  55.4079310  52.7319310
   5.2189310  55.3039310  52.7099310   8.2469310  59.0009310  42.8939310
   8.0259310  58.7509310  43.7919310   9.0629310  58.5349310  42.7109310
   8.3229310  58.9089310  42.9859310  10.9379310  59.0249310  40.7299310
  10.1149310  58.5379310  40.6819310  10.6859310  59.8889310  41.0579310
  10.8009310  59.0729310  40.7659310   7.9949310  66.3579310  54.7489310
   7.3549310  65.8249310  55.2209310   7.9569310  66.0349310  53.8479310
   7.9079310  66.2479310  54.6939310  10.6619310  64.1949310  52.5659310
   9.7709310  64.4109310  52.8439310  10.9389310  64.9479310  52.0439310
  10.5829310  64.3189310  52.5349310   8.0889310  65.2339310  52.3499310
   7.4789310  64.4979310  52.4059310   7.6569310  65.8579310  51.7669310
   7.9559310  65.2189310  52.2829310   6.0509310  61.0139310  43.3149310
   6.6709310  61.4579310  42.7359310   5.2409310  61.5179310  43.2299310
   6.0269310  61.1359310  43.2299310   6.9439310  67.0929310  50.3689310
   6.7709310  67.0159310  49.4309310   7.7269310  67.6399310  50.4239310
   7.0219310  67.1529310  50.2559310   7.8039310  56.7059310  52.2469310
   7.5169310  57.5319310  52.6379310   7.5809310  56.7899310  51.3199310
   7.7379310  56.8229310  52.1789310  11.8189310  58.0419310  44.7329310
  12.4009310  58.5269310  44.1469310  11.2529310  58.7119310  45.1159310
  11.8209310  58.1899310  44.7069310   6.1979310  64.8179310  56.0409310
   5.3869310  64.8559310  55.5339310   6.5619310  63.9549310  55.8459310
   6.1409310  64.7129310  55.9509310   9.5119310  64.5479310  45.9619310
  10.3649310  64.2069310  45.6919310   9.5339310  64.5189310  46.9179310
   9.6239310  64.4999310  46.0489310   2.4419310  61.4589310  53.8669310
   1.6879310  61.1289310  53.3779310   2.2409310  61.2609310  54.7809310
   2.3199310  61.3909310  53.9209310   5.9919310  60.7819310  55.9359310
   5.2079310  60.7429310  56.4839310   6.6289310  60.2309310  56.3899310
   5.9729310  60.7069310  56.0639310  11.5879310  54.5739310  45.4699310
  10.9919310  54.2239310  46.1319310  12.3059310  53.9419310  45.4349310
  11.6039310  54.4489310  45.5499310   7.6579310  65.2189310  41.1769310
   8.0539310  65.5599310  41.9789310   8.1489310  65.6379310  40.4699310
   7.7709310  65.3159310  41.1889310   7.3869310  59.3049310  53.1389310
   8.0799310  59.4989310  53.7709310   6.7509310  60.0109310  53.2569310
   7.3939310  59.4199310  53.2349310   2.6319310  54.4189310  38.2349310
   3.5239310  54.1899310  37.9709310   2.1099310  54.2979310  37.4419310
   2.6799310  54.3749310  38.0999310   4.5169310  57.8079310  33.2249310
   4.6949310  56.9259310  33.5509310   4.8359310  58.3879310  33.9169310
   4.5809310  57.7689310  33.3559310   4.2049310  65.8039310  25.4709310
   3.7789310  65.1969310  24.8669310   3.5419310  66.4709310  25.6489310
   4.0659310  65.8119310  25.4169310   9.9569310  56.4359310  24.7239310
  10.0249310  55.4889310  24.5999310  10.8259310  56.7009310  25.0249310
  10.0769310  56.3489310  24.7469310  11.0759310  60.7269310  26.5649310
  10.2969310  60.8369310  27.1099310  11.4199310  61.6129310  26.4559310
  11.0199310  60.8539310  26.6209310   2.1719310  56.8549310  20.7129310
   1.9059310  56.3919310  21.5079310   2.1879310  56.1779310  20.0369310
   2.1399310  56.7089310  20.7289310   2.4069310  64.0429310  33.9969310
   2.2789310  63.1779310  34.3859310   2.8499310  63.8679310  33.1659310
   2.4469310  63.9099310  33.9399310   5.2829310  64.9949310  21.0159310
   6.0529310  65.0159310  21.5829310   5.6019310  64.6279310  20.1919310
   5.4219310  64.9509310  20.9829310  11.0189310  64.6319310  22.7459310
  10.6529310  65.2729310  23.3559310  10.2539310  64.2099310  22.3539310
  10.8739310  64.6599310  22.7739310   9.0009310  66.2319310  19.7629310
   9.0429310  66.0979310  18.8159310   9.8869310  66.4989310  20.0059310
   9.1199310  66.2489310  19.6729310   9.3439310  56.6619310  21.8509310
   9.4759310  56.5179310  22.7879310   8.4759310  57.0609310  21.7909310
   9.2499310  56.6939310  21.9639310   4.5729310  59.8639310  35.1409310
   5.1589310  60.1769310  35.8299310   3.8469310  60.4889310  35.1409310
   4.5549310  59.9839310  35.2289310   4.4649310  56.7589310  27.8019310
   3.5129310  56.6959310  27.8729310   4.7929310  56.0309310  28.3299310
   4.3849310  56.6579310  27.8789310   9.5939310  64.7669310  29.9239310
  10.0339310  65.2739310  30.6069310   8.9219310  64.2699310  30.3899310
   9.5649310  64.7679310  30.0709310  10.8089310  66.5349310  32.1519310
  10.0949310  67.1399310  31.9529310  11.5249310  67.0979310  32.4489310
  10.8099310  66.6839310  32.1649310   6.9439310  58.0839310  21.6659310
   7.0479310  58.4279310  22.5529310   6.8139310  58.8599310  21.1209310
   6.9409310  58.2269310  21.7099310   9.5859310  58.9319310  28.9929310
  10.4979310  58.9429310  29.2859310   9.5859310  58.3469310  28.2349310
   9.7029310  58.8579310  28.9339310   7.4309310  63.2689310  30.8439310
   6.5559310  63.0119310  30.5539310   7.7829310  62.4859310  31.2679310
   7.3639310  63.1359310  30.8609310   1.7759310  59.7689310  27.3069310
   1.8619310  58.9849310  27.8499310   2.2159310  60.4559310  27.8069310
   1.8429310  59.7569310  27.4399310  10.4379310  57.3869310  36.6469310
   9.5389310  57.0589310  36.6419310  10.7629310  57.2099310  35.7649310
  10.3639310  57.3219310  36.5339310   8.8719310  53.9079310  21.5209310
   8.9999310  54.8229310  21.2689310   7.9229310  53.8129310  21.6059310
   8.7669310  54.0129310  21.4999310  12.0469310  55.2459310  19.5219310
  11.8709310  56.0869310  19.1009310  11.2379310  54.7469310  19.4079310
  11.9209310  55.2899310  19.4539310  14.6159310  61.1739310  26.8999310
  14.6299310  60.8609310  27.8049310  14.5669310  62.1269310  26.9769310
  14.6119310  61.2559310  27.0259310   4.0089310  59.1099310  20.7829310
   3.3829310  58.3859310  20.8069310   4.2269310  59.2689310  21.7009310
   3.9569310  59.0379310  20.9029310  10.4749310  56.6249310  34.0779310
   9.6089310  56.4609310  33.7069310  11.0569310  56.0329310  33.5999310
  10.4389310  56.5279310  33.9689310  10.1809310  62.0749310  20.7839310
   9.7239310  61.8339310  21.5899310  11.1069310  61.9349310  20.9829310
  10.2409310  62.0259310  20.9129310   8.3059310  57.7919310  26.3719310
   9.0019310  57.4059310  25.8389310   7.6959310  57.0699310  26.5269310
   8.3169310  57.6499310  26.3229310   6.3799310  63.2409310  33.9139310
   5.8229310  62.8469310  33.2419310   5.8039310  63.8509310  34.3739310
   6.2349310  63.2689310  33.8869310  10.2939310  62.5019310  37.1079310
   9.4709310  62.8419310  36.7589310  10.1499310  62.4459310  38.0529310
  10.1709310  62.5379310  37.1839310   4.2069310  59.2279310  23.4469310
   3.3839310  59.5109310  23.8429310   4.8849310  59.6139310  24.0019310
   4.1889310  59.3129310  23.5689310   6.2259310  64.3289310  26.9949310
   6.7709310  64.8299310  27.6019310   5.5319310  64.9359310  26.7379310
   6.2069310  64.4699310  27.0399310   8.9299310  61.5749310  23.1879310
   8.8869310  62.1939310  23.9179310   8.5639310  60.7639310  23.5399310
   8.8779310  61.5509310  23.3269310   3.6799310  62.4389310  23.6669310
   3.0079310  61.7579310  23.6969310   3.7589310  62.6559310  22.7379310
   3.6039310  62.3799310  23.5519310   7.6949310  62.5849310  36.2959310
   7.0039310  61.9449310  36.4639310   7.4869310  62.9409310  35.4329310
   7.5799310  62.5479310  36.2069310   5.1189310  56.8869310  24.9419310
   4.8249310  57.6019310  24.3779310   4.8479310  57.1479310  25.8219310
   5.0469310  57.0119310  24.9819310   9.0719310  67.4389310  26.6429310
   8.1569310  67.4489310  26.3599310   9.1939310  66.5709310  27.0279310
   8.9699310  67.3289310  26.6559310   8.0319310  60.2599310  19.8929310
   8.5099310  59.9069310  19.1439310   8.5339310  61.0319310  20.1559310
   8.1569310  60.3139310  19.8309310   9.8839310  51.3399310  29.2919310
  10.0299310  51.7449310  30.1469310   8.9389310  51.4079310  29.1529310
   9.7819310  51.3999310  29.3839310   5.9719310  61.4749310  27.0059310
   6.4699310  61.2679310  26.2149310   6.1559310  62.3999310  27.1699310
   6.0589310  61.5669310  26.9259310   3.2929310  62.0709310  27.6289310
   2.8859310  62.8309310  27.2129310   4.1549310  62.0059310  27.2189310
   3.3509310  62.1599310  27.5229310   7.8299310  63.3099310  25.1109310
   8.5039310  63.7219310  25.6509310   7.0199310  63.7559310  25.3569310
   7.8129310  63.4199310  25.2109310   6.2869310  57.8109310  31.1529310
   5.8329310  58.2529310  30.4349310   5.7449310  57.9859310  31.9219310
   6.1599310  57.8899310  31.1589310  11.4519310  62.7389310  30.0969310
  11.0629310  62.2649310  30.8329310  10.9169310  63.5279310  30.0109310
  11.3339310  62.7789310  30.1799310   4.8259310  59.2869310  28.9629310
   5.4519310  59.7369310  28.3959310   4.6839310  58.4399310  28.5389310
   4.8879310  59.2359310  28.8359310   4.8499310  56.0319310  21.7189310
   4.0909310  56.2799310  21.1909310   5.4049310  56.8119310  21.7199310
   4.8239310  56.1639310  21.6519310   6.9719310  55.2159310  26.2319310
   6.3099310  55.6219310  25.6719310   7.6669310  54.9529310  25.6289310
   6.9759310  55.2349310  26.0829310   8.5849310  60.4479310  31.6109310
   8.3199310  59.7959310  32.2609310   8.8039310  59.9349310  30.8329310
   8.5789310  60.2989310  31.5949310   1.7809310  67.4479310  20.1189310
   2.6249310  67.4099310  20.5699310   2.0039310  67.6529310  19.2109310
   1.9179310  67.4689310  20.0609310   9.6379310  53.9769310  37.8109310
   9.0969310  53.4619310  38.4089310   9.1739310  54.8099310  37.7239310
   9.5099310  54.0179310  37.8769310  11.0069310  61.5279310  33.0089310
  10.1109310  61.2029310  32.9219310  10.9069310  62.4229310  33.3339310
  10.8789310  61.6009310  33.0399310   3.2029310  63.2149310  21.0469310
   3.9329310  63.8349310  21.0359310   2.4209310  63.7659310  21.0159310
   3.1959310  63.3649310  21.0409310   2.8349310  60.5959310  30.1629310
   2.3859310  59.8419310  30.5449310   3.5569310  60.2159310  29.6629310
   2.8699310  60.4509310  30.1479310   4.3699310  64.7199310  31.8749310
   4.0939310  65.5439310  32.2769310   5.3209310  64.7069310  31.9839310
   4.4569310  64.8239310  31.9399310   3.5089310  57.6769310  36.5649310
   3.0429310  58.2749310  37.1489310   4.1039310  58.2409310  36.0699310
   3.5249310  57.8249310  36.5759310   4.8209310  63.0099310  29.9609310
   4.5529310  63.6529310  30.6179310   4.0219310  62.8279310  29.4649310
   4.6839310  63.0689310  29.9809310   4.7979310  61.3439310  32.5229310
   4.6349310  61.6529310  31.6319310   3.9369310  61.0799310  32.8459310
   4.6669310  61.3499310  32.4509310   5.0199310  55.5649310  36.6609310
   5.0169310  55.2749310  35.7489310   4.3479310  56.2459310  36.6979310
   4.9329310  55.6149310  36.5489310   4.7299310  65.0069310  35.0589310
   3.9119310  64.8509310  34.5879310   4.7779310  65.9589310  35.1479310
   4.6319310  65.1089310  35.0099310   9.0799310  59.7029310  36.2899310
   9.7929310  59.0709310  36.3849310   9.5199310  60.5399310  36.1439310
   9.2269310  59.7289310  36.2829310   3.1219310  60.9129310  19.0639310
   3.1029310  61.5629310  19.7659310   3.4769310  60.1249310  19.4759310
   3.1649310  60.8959310  19.2059310   8.1049310  56.1629310  36.4849310
   8.1659310  55.8159310  35.5949310   7.1649310  56.2109310  36.6589310
   7.9919310  56.1249310  36.3929310   2.7949310  55.4159310  23.9159310
   2.5699310  56.2009310  24.4149310   3.6939310  55.5679310  23.6239310
   2.8819310  55.5359310  23.9429310   8.2219310  55.1359310  28.7859310
   9.0929310  54.7429310  28.8429310   8.1229310  55.3669310  27.8629310
   8.3209310  55.1149310  28.6749310   5.1299310  55.4029310  33.9199310
   4.8699310  54.6269310  33.4229310   6.0859310  55.4079310  33.8719310
   5.2189310  55.3039310  33.8499310   8.2469310  59.0009310  24.0339310
   8.0259310  58.7509310  24.9319310   9.0629310  58.5349310  23.8509310
   8.3229310  58.9089310  24.1259310  10.9379310  59.0249310  21.8699310
  10.1149310  58.5379310  21.8219310  10.6859310  59.8889310  22.1979310
  10.8009310  59.0729310  21.9059310   7.9949310  66.3579310  35.8889310
   7.3549310  65.8249310  36.3609310   7.9569310  66.0349310  34.9879310
   7.9079310  66.2479310  35.8339310  10.6619310  64.1949310  33.7059310
   9.7709310  64.4109310  33.9839310  10.9389310  64.9479310  33.1839310
  10.5829310  64.3189310  33.6749310   9.7299310  66.2169310  24.1379310
   9.7519310  66.3329310  25.0879310   9.9029310  67.0899310  23.7869310
   9.7549310  66.3439310  24.2149310   8.0889310  65.2339310  33.4899310
   7.4789310  64.4979310  33.5459310   7.6569310  65.8579310  32.9069310
   7.9559310  65.2189310  33.4229310   6.0509310  61.0139310  24.4549310
   6.6709310  61.4579310  23.8759310   5.2409310  61.5179310  24.3699310
   6.0269310  61.1359310  24.3699310   6.9439310  67.0929310  31.5089310
   6.7709310  67.0159310  30.5709310   7.7269310  67.6399310  31.5639310
   7.0219310  67.1529310  31.3959310   7.8039310  56.7059310  33.3869310
   7.5169310  57.5319310  33.7779310   7.5809310  56.7899310  32.4599310
   7.7379310  56.8229310  33.3189310  11.8189310  58.0419310  25.8729310
  12.4009310  58.5269310  25.2869310  11.2529310  58.7119310  26.2559310
  11.8209310  58.1899310  25.8469310   6.1979310  64.8179310  37.1809310
   5.3869310  64.8559310  36.6739310   6.5619310  63.9549310  36.9859310
   6.1409310  64.7129310  37.0909310   9.5119310  64.5479310  27.1019310
  10.3649310  64.2069310  26.8319310   9.5339310  64.5189310  28.0579310
   9.6239310  64.4999310  27.1889310   2.4419310  61.4589310  35.0069310
   1.6879310  61.1289310  34.5179310   2.2409310  61.2609310  35.9209310
   2.3199310  61.3909310  35.0609310   5.9919310  60.7819310  37.0759310
   5.2079310  60.7429310  37.6239310   6.6289310  60.2309310  37.5299310
   5.9729310  60.7069310  37.2039310  11.5879310  54.5739310  26.6099310
  10.9919310  54.2239310  27.2719310  12.3059310  53.9419310  26.5749310
  11.6039310  54.4489310  26.6899310   7.6579310  65.2189310  22.3169310
   8.0539310  65.5599310  23.1189310   8.1489310  65.6379310  21.6099310
   7.7709310  65.3159310  22.3289310   7.3869310  59.3049310  34.2789310
   8.0799310  59.4989310  34.9109310   6.7509310  60.0109310  34.3969310
   7.3939310  59.4199310  34.3749310   2.6319310  54.4189310  19.3749310
   3.5239310  54.1899310  19.1109310   2.1099310  54.2979310  18.5819310
   2.6799310  54.3749310  19.2399310   4.5169310  57.8079310  14.3649310
   4.6949310  56.9259310  14.6909310   4.8359310  58.3879310  15.0569310
   4.5809310  57.7689310  14.4959310   4.2049310  65.8039310   6.6109310
   3.7789310  65.1969310   6.0069310   3.5419310  66.4709310   6.7889310
   4.0659310  65.8119310   6.5569310   9.9569310  56.4359310   5.8639310
  10.0249310  55.4889310   5.7399310  10.8259310  56.7009310   6.1649310
  10.0769310  56.3489310   5.8869310  11.0759310  60.7269310   7.7049310
  10.2969310  60.8369310   8.2499310  11.4199310  61.6129310   7.5959310
  11.0199310  60.8539310   7.7609310   2.4069310  64.0429310  15.1369310
   2.2789310  63.1779310  15.5259310   2.8499310  63.8679310  14.3059310
   2.4469310  63.9099310  15.0799310  11.0189310  64.6319310   3.8859310
  10.6529310  65.2729310   4.4959310  10.2539310  64.2099310   3.4939310
  10.8739310  64.6599310   3.9139310   9.3439310  56.6619310   2.9909310
   9.4759310  56.5179310   3.9279310   8.4759310  57.0609310   2.9309310
   9.2499310  56.6939310   3.1039310   4.5729310  59.8639310  16.2809310
   5.1589310  60.1769310  16.9699310   3.8469310  60.4889310  16.2809310
   4.5549310  59.9839310  16.3689310   4.4649310  56.7589310   8.9419310
   3.5129310  56.6959310   9.0129310   4.7929310  56.0309310   9.4699310
   4.3849310  56.6579310   9.0189310   9.5939310  64.7669310  11.0639310
  10.0339310  65.2739310  11.7469310   8.9219310  64.2699310  11.5299310
   9.5649310  64.7679310  11.2109310  10.8089310  66.5349310  13.2919310
  10.0949310  67.1399310  13.0929310  11.5249310  67.0979310  13.5889310
  10.8099310  66.6839310  13.3049310   6.9439310  58.0839310   2.8059310
   7.0479310  58.4279310   3.6929310   6.8139310  58.8599310   2.2609310
   6.9409310  58.2269310   2.8499310   9.5859310  58.9319310  10.1329310
  10.4979310  58.9429310  10.4259310   9.5859310  58.3469310   9.3749310
   9.7029310  58.8579310  10.0739310   7.4309310  63.2689310  11.9839310
   6.5559310  63.0119310  11.6939310   7.7829310  62.4859310  12.4079310
   7.3639310  63.1359310  12.0009310   1.7759310  59.7689310   8.4469310
   1.8619310  58.9849310   8.9899310   2.2159310  60.4559310   8.9469310
   1.8429310  59.7569310   8.5799310  10.4379310  57.3869310  17.7869310
   9.5389310  57.0589310  17.7819310  10.7629310  57.2099310  16.9049310
  10.3639310  57.3219310  17.6739310   8.8719310  53.9079310   2.6609310
   8.9999310  54.8229310   2.4089310   7.9229310  53.8129310   2.7459310
   8.7669310  54.0129310   2.6399310  14.6159310  61.1739310   8.0399310
  14.6299310  60.8609310   8.9449310  14.5669310  62.1269310   8.1169310
  14.6119310  61.2559310   8.1659310   4.0089310  59.1099310   1.9229310
   3.3829310  58.3859310   1.9469310   4.2269310  59.2689310   2.8409310
   3.9569310  59.0379310   2.0429310  10.4749310  56.6249310  15.2179310
   9.6089310  56.4609310  14.8469310  11.0569310  56.0329310  14.7399310
  10.4389310  56.5279310  15.1089310  10.1809310  62.0749310   1.9239310
   9.7239310  61.8339310   2.7299310  11.1069310  61.9349310   2.1229310
  10.2409310  62.0259310   2.0529310   8.3059310  57.7919310   7.5119310
   9.0019310  57.4059310   6.9789310   7.6959310  57.0699310   7.6669310
   8.3169310  57.6499310   7.4629310   6.3799310  63.2409310  15.0539310
   5.8229310  62.8469310  14.3819310   5.8039310  63.8509310  15.5139310
   6.2349310  63.2689310  15.0269310  10.2939310  62.5019310  18.2479310
   9.4709310  62.8419310  17.8989310  10.1499310  62.4459310  19.1929310
  10.1709310  62.5379310  18.3239310   4.2069310  59.2279310   4.5869310
   3.3839310  59.5109310   4.9829310   4.8849310  59.6139310   5.1419310
   4.1889310  59.3129310   4.7089310   6.2259310  64.3289310   8.1349310
   6.7709310  64.8299310   8.7419310   5.5319310  64.9359310   7.8779310
   6.2069310  64.4699310   8.1799310   8.9299310  61.5749310   4.3279310
   8.8869310  62.1939310   5.0579310   8.5639310  60.7639310   4.6799310
   8.8779310  61.5509310   4.4669310   3.6799310  62.4389310   4.8069310
   3.0079310  61.7579310   4.8369310   3.7589310  62.6559310   3.8779310
   3.6039310  62.3799310   4.6919310   7.6949310  62.5849310  17.4359310
   7.0039310  61.9449310  17.6039310   7.4869310  62.9409310  16.5729310
   7.5799310  62.5479310  17.3469310   5.1189310  56.8869310   6.0819310
   4.8249310  57.6019310   5.5179310   4.8479310  57.1479310   6.9619310
   5.0469310  57.0119310   6.1219310   9.0719310  67.4389310   7.7829310
   8.1569310  67.4489310   7.4999310   9.1939310  66.5709310   8.1679310
   8.9699310  67.3289310   7.7959310   9.8839310  51.3399310  10.4319310
  10.0299310  51.7449310  11.2869310   8.9389310  51.4079310  10.2929310
   9.7819310  51.3999310  10.5239310   5.9719310  61.4749310   8.1459310
   6.4699310  61.2679310   7.3549310   6.1559310  62.3999310   8.3099310
   6.0589310  61.5669310   8.0659310   3.2929310  62.0709310   8.7689310
   2.8859310  62.8309310   8.3529310   4.1549310  62.0059310   8.3589310
   3.3509310  62.1599310   8.6629310   7.8299310  63.3099310   6.2509310
   8.5039310  63.7219310   6.7909310   7.0199310  63.7559310   6.4969310
   7.8129310  63.4199310   6.3509310   6.2869310  57.8109310  12.2929310
   5.8329310  58.2529310  11.5749310   5.7449310  57.9859310  13.0619310
   6.1599310  57.8899310  12.2989310  11.4519310  62.7389310  11.2369310
  11.0629310  62.2649310  11.9729310  10.9169310  63.5279310  11.1509310
  11.3339310  62.7789310  11.3199310   4.8259310  59.2869310  10.1029310
   5.4519310  59.7369310   9.5359310   4.6839310  58.4399310   9.6789310
   4.8879310  59.2359310   9.9759310   4.8499310  56.0319310   2.8589310
   4.0909310  56.2799310   2.3309310   5.4049310  56.8119310   2.8599310
   4.8239310  56.1639310   2.7919310   6.9719310  55.2159310   7.3719310
   6.3099310  55.6219310   6.8119310   7.6669310  54.9529310   6.7689310
   6.9759310  55.2349310   7.2229310   8.5849310  60.4479310  12.7509310
   8.3199310  59.7959310  13.4009310   8.8039310  59.9349310  11.9729310
   8.5789310  60.2989310  12.7349310   9.6379310  53.9769310  18.9509310
   9.0969310  53.4619310  19.5489310   9.1739310  54.8099310  18.8639310
   9.5099310  54.0179310  19.0169310  11.0069310  61.5279310  14.1489310
  10.1109310  61.2029310  14.0619310  10.9069310  62.4229310  14.4739310
  10.8789310  61.6009310  14.1799310   3.2029310  63.2149310   2.1869310
   3.9329310  63.8349310   2.1759310   2.4209310  63.7659310   2.1559310
   3.1959310  63.3649310   2.1809310   2.8349310  60.5959310  11.3029310
   2.3859310  59.8419310  11.6849310   3.5569310  60.2159310  10.8029310
   2.8699310  60.4509310  11.2879310   4.3699310  64.7199310  13.0149310
   4.0939310  65.5439310  13.4169310   5.3209310  64.7069310  13.1239310
   4.4569310  64.8239310  13.0799310   3.5089310  57.6769310  17.7049310
   3.0429310  58.2749310  18.2889310   4.1039310  58.2409310  17.2099310
   3.5249310  57.8249310  17.7159310   4.8209310  63.0099310  11.1009310
   4.5529310  63.6529310  11.7579310   4.0219310  62.8279310  10.6049310
   4.6839310  63.0689310  11.1209310   4.7979310  61.3439310  13.6629310
   4.6349310  61.6529310  12.7719310   3.9369310  61.0799310  13.9859310
   4.6669310  61.3499310  13.5909310   5.0199310  55.5649310  17.8009310
   5.0169310  55.2749310  16.8889310   4.3479310  56.2459310  17.8379310
   4.9329310  55.6149310  17.6889310   4.7299310  65.0069310  16.1989310
   3.9119310  64.8509310  15.7279310   4.7779310  65.9589310  16.2879310
   4.6319310  65.1089310  16.1499310   9.0799310  59.7029310  17.4299310
   9.7929310  59.0709310  17.5249310   9.5199310  60.5399310  17.2839310
   9.2269310  59.7289310  17.4229310   8.1049310  56.1629310  17.6249310
   8.1659310  55.8159310  16.7349310   7.1649310  56.2109310  17.7989310
   7.9919310  56.1249310  17.5329310   2.7949310  55.4159310   5.0559310
   2.5699310  56.2009310   5.5549310   3.6939310  55.5679310   4.7639310
   2.8819310  55.5359310   5.0829310   8.2219310  55.1359310   9.9259310
   9.0929310  54.7429310   9.9829310   8.1229310  55.3669310   9.0029310
   8.3209310  55.1149310   9.8149310   5.1299310  55.4029310  15.0599310
   4.8699310  54.6269310  14.5629310   6.0859310  55.4079310  15.0119310
   5.2189310  55.3039310  14.9899310   8.2469310  59.0009310   5.1739310
   8.0259310  58.7509310   6.0719310   9.0629310  58.5349310   4.9909310
   8.3229310  58.9089310   5.2659310  10.9379310  59.0249310   3.0099310
  10.1149310  58.5379310   2.9619310  10.6859310  59.8889310   3.3379310
  10.8009310  59.0729310   3.0459310   7.9949310  66.3579310  17.0289310
   7.3549310  65.8249310  17.5009310   7.9569310  66.0349310  16.1279310
   7.9079310  66.2479310  16.9739310  10.6619310  64.1949310  14.8459310
   9.7709310  64.4109310  15.1239310  10.9389310  64.9479310  14.3239310
  10.5829310  64.3189310  14.8149310   9.7299310  66.2169310   5.2779310
   9.7519310  66.3329310   6.2279310   9.9029310  67.0899310   4.9269310
   9.7549310  66.3439310   5.3549310   8.0889310  65.2339310  14.6299310
   7.4789310  64.4979310  14.6859310   7.6569310  65.8579310  14.0469310
   7.9559310  65.2189310  14.5629310   6.0509310  61.0139310   5.5949310
   6.6709310  61.4579310   5.0159310   5.2409310  61.5179310   5.5099310
   6.0269310  61.1359310   5.5099310   6.9439310  67.0929310  12.6489310
   6.7709310  67.0159310  11.7109310   7.7269310  67.6399310  12.7039310
   7.0219310  67.1529310  12.5359310   7.8039310  56.7059310  14.5269310
   7.5169310  57.5319310  14.9179310   7.5809310  56.7899310  13.5999310
   7.7379310  56.8229310  14.4589310  11.8189310  58.0419310   7.0129310
  12.4009310  58.5269310   6.4269310  11.2529310  58.7119310   7.3959310
  11.8209310  58.1899310   6.9869310   6.1979310  64.8179310  18.3209310
   5.3869310  64.8559310  17.8139310   6.5619310  63.9549310  18.1259310
   6.1409310  64.7129310  18.2309310   9.5119310  64.5479310   8.2419310
  10.3649310  64.2069310   7.9719310   9.5339310  64.5189310   9.1979310
   9.6239310  64.4999310   8.3289310   2.4419310  61.4589310  16.1469310
   1.6879310  61.1289310  15.6579310   2.2409310  61.2609310  17.0609310
   2.3199310  61.3909310  16.2009310   5.9919310  60.7819310  18.2159310
   5.2079310  60.7429310  18.7639310   6.6289310  60.2309310  18.6699310
   5.9729310  60.7069310  18.3439310  11.5879310  54.5739310   7.7499310
  10.9919310  54.2239310   8.4119310  12.3059310  53.9419310   7.7149310
  11.6039310  54.4489310   7.8299310   7.6579310  65.2189310   3.4569310
   8.0539310  65.5599310   4.2589310   8.1489310  65.6379310   2.7499310
   7.7709310  65.3159310   3.4689310   7.3869310  59.3049310  15.4189310
   8.0799310  59.4989310  16.0509310   6.7509310  60.0109310  15.5369310
   7.3939310  59.4199310  15.5149310   8.8599310  50.0649310  57.2579310
   7.9979310  50.3929310  57.0019310   8.7639310  49.1129310  57.2569310
   8.7369310  49.9849310  57.2249310   4.5169310  38.9409310  70.9449310
   4.6949310  38.0589310  71.2709310   4.8359310  39.5209310  71.6369310
   4.5809310  38.9019310  71.0759310   4.2049310  46.9369310  63.1909310
   3.7789310  46.3299310  62.5869310   3.5419310  47.6039310  63.3689310
   4.0659310  46.9449310  63.1369310   9.9569310  37.5689310  62.4439310
  10.0249310  36.6219310  62.3199310  10.8259310  37.8339310  62.7449310
  10.0769310  37.4819310  62.4669310  11.0759310  41.8599310  64.2849310
  10.2969310  41.9699310  64.8299310  11.4199310  42.7459310  64.1759310
  11.0199310  41.9869310  64.3409310   2.1719310  37.9879310  58.4329310
   1.9059310  37.5249310  59.2279310   2.1879310  37.3109310  57.7569310
   2.1399310  37.8419310  58.4489310   2.4069310  45.1759310  71.7169310
   2.2789310  44.3109310  72.1059310   2.8499310  45.0009310  70.8859310
   2.4469310  45.0429310  71.6599310   5.2829310  46.1279310  58.7359310
   6.0529310  46.1489310  59.3029310   5.6019310  45.7609310  57.9119310
   5.4219310  46.0839310  58.7029310  11.0189310  45.7649310  60.4659310
  10.6529310  46.4059310  61.0759310  10.2539310  45.3429310  60.0739310
  10.8739310  45.7929310  60.4939310   9.0009310  47.3649310  57.4829310
   9.0429310  47.2309310  56.5359310   9.8869310  47.6319310  57.7259310
   9.1199310  47.3819310  57.3929310   9.3439310  37.7949310  59.5709310
   9.4759310  37.6509310  60.5079310   8.4759310  38.1939310  59.5109310
   9.2499310  37.8269310  59.6839310   5.9939310  49.5319310  64.0719310
   6.1699310  50.3819310  63.6689310   5.2349310  49.1949310  63.5979310
   5.9199310  49.5979310  63.9599310   5.7839310  52.8569310  65.3239310
   6.3699310  53.5939310  65.1489310   5.0019310  53.0429310  64.8049310
   5.7589310  52.9749310  65.2349310   4.5729310  40.9969310  72.8609310
   5.1589310  41.3099310  73.5499310   3.8469310  41.6219310  72.8609310
   4.5549310  41.1169310  72.9489310   4.4649310  37.8919310  65.5219310
   3.5129310  37.8289310  65.5929310   4.7929310  37.1639310  66.0499310
   4.3849310  37.7909310  65.5989310   9.5939310  45.8999310  67.6439310
  10.0339310  46.4069310  68.3269310   8.9219310  45.4029310  68.1099310
   9.5649310  45.9009310  67.7909310  10.8089310  47.6679310  69.8719310
  10.0949310  48.2729310  69.6729310  11.5249310  48.2309310  70.1689310
  10.8099310  47.8169310  69.8849310   4.3209310  48.7289310  58.8099310
   4.6249310  47.8359310  58.9659310   4.8479310  49.2689310  59.3989310
   4.4269310  48.6839310  58.9049310   6.9439310  39.2169310  59.3859310
   7.0479310  39.5609310  60.2729310   6.8139310  39.9929310  58.8409310
   6.9409310  39.3599310  59.4299310   9.5859310  40.0649310  66.7129310
  10.4979310  40.0759310  67.0059310   9.5859310  39.4799310  65.9549310
   9.7029310  39.9909310  66.6539310   7.4309310  44.4019310  68.5639310
   6.5559310  44.1449310  68.2739310   7.7829310  43.6189310  68.9879310
   7.3639310  44.2689310  68.5809310   1.7759310  40.9019310  65.0269310
   1.8619310  40.1179310  65.5699310   2.2159310  41.5889310  65.5269310
   1.8429310  40.8899310  65.1599310  10.4379310  38.5199310  74.3669310
   9.5389310  38.1919310  74.3619310  10.7629310  38.3429310  73.4849310
  10.3639310  38.4549310  74.2539310  10.4539310  49.6419310  60.3629310
  10.5749310  50.5169310  59.9949310  10.6629310  49.0479310  59.6419310
  10.4959310  49.6779310  60.2229310   8.8719310  35.0409310  59.2409310
   8.9999310  35.9559310  58.9889310   7.9229310  34.9459310  59.3259310
   8.7669310  35.1459310  59.2199310   4.9019310  48.9259310  73.4969310
   5.4839310  48.7619310  74.2379310   4.3089310  49.6119310  73.8049310
   4.8999310  48.9929310  73.6309310  12.0469310  36.3789310  57.2419310
  11.8709310  37.2199310  56.8209310  11.2379310  35.8799310  57.1279310
  11.9209310  36.4229310  57.1739310  14.6159310  42.3069310  64.6199310
  14.6299310  41.9939310  65.5249310  14.5669310  43.2599310  64.6969310
  14.6119310  42.3889310  64.7459310   4.0089310  40.2429310  58.5029310
   3.3829310  39.5189310  58.5269310   4.2269310  40.4019310  59.4209310
   3.9569310  40.1709310  58.6229310  10.4749310  37.7579310  71.7979310
   9.6089310  37.5939310  71.4269310  11.0569310  37.1659310  71.3199310
  10.4389310  37.6609310  71.6889310  10.1809310  43.2079310  58.5039310
   9.7239310  42.9669310  59.3099310  11.1069310  43.0679310  58.7029310
  10.2409310  43.1589310  58.6329310   8.9249310  49.8279310  70.3419310
   8.5739310  49.7249310  71.2269310   9.0729310  50.7699310  70.2519310
   8.8989310  49.9349310  70.4439310  11.0619310  51.5949310  72.2209310
  11.2599310  51.1999310  73.0709310  10.3909310  52.2499310  72.4119310
  11.0009310  51.6279310  72.3539310   8.3059310  38.9249310  64.0919310
   9.0019310  38.5389310  63.5589310   7.6959310  38.2029310  64.2469310
   8.3169310  38.7829310  64.0429310   6.3799310  44.3739310  71.6339310
   5.8229310  43.9799310  70.9619310   5.8039310  44.9839310  72.0939310
   6.2349310  44.4019310  71.6069310   4.2069310  40.3609310  61.1669310
   3.3839310  40.6439310  61.5629310   4.8849310  40.7469310  61.7219310
   4.1889310  40.4459310  61.2889310   6.2259310  45.4619310  64.7149310
   6.7709310  45.9629310  65.3219310   5.5319310  46.0689310  64.4579310
   6.2069310  45.6029310  64.7599310   8.9299310  42.7079310  60.9079310
   8.8869310  43.3269310  61.6379310   8.5639310  41.8969310  61.2599310
   8.8779310  42.6839310  61.0469310   3.6799310  43.5719310  61.3869310
   3.0079310  42.8909310  61.4169310   3.7589310  43.7889310  60.4579310
   3.6039310  43.5129310  61.2719310   4.8659310  52.5509310  70.5049310
   4.3169310  52.4819310  69.7249310   5.2299310  51.6739310  70.6209310
   4.8429310  52.4299310  70.4199310   7.6949310  43.7179310  74.0159310
   7.0039310  43.0779310  74.1839310   7.4869310  44.0739310  73.1529310
   7.5799310  43.6809310  73.9269310   5.1189310  38.0199310  62.6619310
   4.8249310  38.7349310  62.0979310   4.8479310  38.2809310  63.5419310
   5.0469310  38.1449310  62.7019310   3.5729310  49.6759310  67.7439310
   3.5089310  49.1559310  68.5459310   4.1179310  50.4249310  67.9869310
   3.6339310  49.7049310  67.8779310   9.0719310  48.5719310  64.3629310
   8.1569310  48.5819310  64.0799310   9.1939310  47.7039310  64.7479310
   8.9699310  48.4619310  64.3759310   8.0319310  41.3929310  57.6129310
   8.5099310  41.0399310  56.8639310   8.5339310  42.1649310  57.8759310
   8.1569310  41.4469310  57.5509310   9.8839310  32.4729310  67.0119310
  10.0299310  32.8779310  67.8669310   8.9389310  32.5409310  66.8729310
   9.7819310  32.5329310  67.1039310   5.9719310  42.6079310  64.7259310
   6.4699310  42.4009310  63.9349310   6.1559310  43.5329310  64.8899310
   6.0589310  42.6999310  64.6459310  10.6599310  53.3799310  66.7939310
  10.5129310  52.4369310  66.8749310  11.3139310  53.5779310  67.4649310
  10.7249310  53.2839310  66.8899310  11.9929310  49.6579310  65.5799310
  11.1489310  50.0709310  65.7639310  11.8609310  48.7359310  65.7979310
  11.8679310  49.5929310  65.6309310   3.2929310  43.2039310  65.3489310
   2.8859310  43.9639310  64.9329310   4.1549310  43.1389310  64.9389310
   3.3509310  43.2929310  65.2429310   7.8299310  44.4429310  62.8309310
   8.5039310  44.8549310  63.3709310   7.0199310  44.8889310  63.0769310
   7.8129310  44.5529310  62.9309310   6.2869310  38.9439310  68.8729310
   5.8329310  39.3859310  68.1549310   5.7449310  39.1189310  69.6419310
   6.1599310  39.0229310  68.8789310  11.4519310  43.8719310  67.8169310
  11.0629310  43.3979310  68.5529310  10.9169310  44.6609310  67.7309310
  11.3339310  43.9119310  67.8999310   4.8259310  40.4199310  66.6829310
   5.4519310  40.8699310  66.1159310   4.6839310  39.5729310  66.2589310
   4.8879310  40.3689310  66.5559310   3.3609310  48.2969310  70.1819310
   3.7539310  49.1179310  70.4779310   2.4479310  48.3519310  70.4639310
   3.2949310  48.4089310  70.2559310   4.8499310  37.1649310  59.4389310
   4.0909310  37.4129310  58.9109310   5.4049310  37.9449310  59.4399310
   4.8239310  37.2969310  59.3719310   6.9719310  36.3489310  63.9519310
   6.3099310  36.7549310  63.3919310   7.6669310  36.0859310  63.3489310
   6.9759310  36.3679310  63.8029310   8.5849310  41.5809310  69.3309310
   8.3199310  40.9289310  69.9809310   8.8039310  41.0679310  68.5529310
   8.5789310  41.4319310  69.3149310   1.7809310  48.5809310  57.8389310
   2.6249310  48.5429310  58.2899310   2.0039310  48.7859310  56.9309310
   1.9179310  48.6019310  57.7809310   6.1439310  48.8259310  66.5669310
   6.2419310  49.0729310  65.6469310   5.2899310  49.1759310  66.8189310
   6.0469310  48.9019310  66.4819310   3.5339310  53.2399310  63.9059310
   3.3489310  52.4129310  63.4599310   3.2219310  53.9129310  63.3009310
   3.4699310  53.2199310  63.7709310   5.1219310  52.4749310  56.9959310
   5.2799310  53.3139310  56.5629310   5.3839310  52.6219310  57.9049310
   5.1759310  52.6009310  57.0569310   7.2319310  51.2519310  67.1059310
   6.6879310  51.8519310  66.5949310   6.8409310  50.3909310  66.9599310
   7.1129310  51.2189310  67.0219310  11.0069310  42.6609310  70.7289310
  10.1109310  42.3359310  70.6419310  10.9069310  43.5559310  71.0539310
  10.8789310  42.7339310  70.7599310   3.2029310  44.3479310  58.7669310
   3.9329310  44.9679310  58.7559310   2.4209310  44.8989310  58.7359310
   3.1959310  44.4979310  58.7609310   2.8349310  41.7289310  67.8829310
   2.3859310  40.9749310  68.2649310   3.5569310  41.3489310  67.3829310
   2.8699310  41.5839310  67.8679310   4.3699310  45.8529310  69.5949310
   4.0939310  46.6769310  69.9969310   5.3209310  45.8399310  69.7039310
   4.4569310  45.9569310  69.6599310   3.7259310  53.0759310  67.8439310
   4.5159310  53.6139310  67.7899310   3.1259310  53.4679310  67.2099310
   3.7499310  53.1949310  67.7559310   6.7159310  51.7059310  62.6959310
   6.3479310  52.2869310  63.3609310   7.6069310  52.0289310  62.5619310
   6.7829310  51.8219310  62.7639310   4.8209310  44.1429310  67.6809310
   4.5529310  44.7859310  68.3379310   4.0219310  43.9609310  67.1849310
   4.6839310  44.2019310  67.7009310   4.7979310  42.4769310  70.2429310
   4.6349310  42.7859310  69.3519310   3.9369310  42.2129310  70.5659310
   4.6669310  42.4829310  70.1709310   5.0199310  36.6979310  74.3809310
   5.0169310  36.4079310  73.4689310   4.3479310  37.3789310  74.4179310
   4.9329310  36.7479310  74.2689310   4.7299310  46.1399310  72.7789310
   3.9119310  45.9839310  72.3079310   4.7779310  47.0919310  72.8679310
   4.6319310  46.2419310  72.7299310   9.0799310  40.8359310  74.0099310
   9.7929310  40.2039310  74.1049310   9.5199310  41.6729310  73.8639310
   9.2269310  40.8619310  74.0029310  10.5529310  52.1129310  69.5789310
  10.8349310  52.0169310  70.4889310   9.7719310  52.6639310  69.6279310
  10.4889310  52.1709310  69.7019310  10.4739310  50.8909310  63.0139310
  10.5439310  50.2619310  63.7309310  10.5399310  50.3589310  62.2209310
  10.4909310  50.7429310  63.0039310   3.1219310  42.0459310  56.7839310
   3.1029310  42.6959310  57.4859310   3.4769310  41.2579310  57.1959310
   3.1649310  42.0289310  56.9259310   8.1049310  37.2959310  74.2049310
   8.1659310  36.9489310  73.3149310   7.1649310  37.3439310  74.3789310
   7.9919310  37.2579310  74.1129310   5.0839310  50.9249310  60.6539310
   4.3989310  50.8529310  61.3189310   5.8819310  51.1029310  61.1509310
   5.0979310  50.9379310  60.8029310   2.7949310  36.5489310  61.6359310
   2.5699310  37.3339310  62.1349310   3.6939310  36.7009310  61.3439310
   2.8819310  36.6689310  61.6629310   8.2219310  36.2689310  66.5059310
   9.0929310  35.8759310  66.5629310   8.1229310  36.4999310  65.5829310
   8.3209310  36.2479310  66.3949310   5.1299310  36.5359310  71.6399310
   4.8699310  35.7599310  71.1429310   6.0859310  36.5409310  71.5919310
   5.2189310  36.4369310  71.5699310   8.2469310  40.1339310  61.7539310
   8.0259310  39.8839310  62.6519310   9.0629310  39.6679310  61.5709310
   8.3229310  40.0419310  61.8459310   6.0929310  49.8969310  56.9009310
   5.6929310  50.7649310  56.9509310   5.6169310  49.3759310  57.5479310
   5.9809310  49.9419310  56.9899310   5.3499310  49.8889310  70.9619310
   5.1469310  49.5789310  71.8439310   5.8639310  49.1809310  70.5719310
   5.3899310  49.7579310  71.0249310  10.9379310  40.1579310  59.5899310
  10.1149310  39.6709310  59.5419310  10.6859310  41.0219310  59.9179310
  10.8009310  40.2059310  59.6259310   7.9949310  47.4909310  73.6089310
   7.3549310  46.9579310  74.0809310   7.9569310  47.1679310  72.7079310
   7.9079310  47.3809310  73.5539310  10.6619310  45.3279310  71.4259310
   9.7709310  45.5439310  71.7039310  10.9389310  46.0809310  70.9039310
  10.5829310  45.4519310  71.3949310   9.7299310  47.3499310  61.8579310
   9.7519310  47.4659310  62.8079310   9.9029310  48.2229310  61.5069310
   9.7549310  47.4769310  61.9349310   9.1049310  53.2899310  62.1649310
   8.8409310  53.2549310  61.2459310   9.7269310  52.5689310  62.2639310
   9.1509310  53.1929310  62.0599310   6.2789310  53.2859310  59.6759310
   5.7629310  52.6009310  60.1019310   5.7959310  54.0929310  59.8499310
   6.1509310  53.3009310  59.7529310   6.0159310  54.8289310  67.9769310
   6.7909310  54.6729310  67.4379310   5.9849310  55.7799310  68.0829310
   6.1109310  54.9309310  67.9219310   2.5859310  51.2409310  62.2059310
   2.3479310  50.4279310  62.6499310   1.7809310  51.5189310  61.7689310
   2.4529310  51.1729310  62.2069310   7.7789310  50.6609310  73.5129310
   8.0489310  49.7569310  73.6729310   6.8269310  50.6479310  73.6139310
   7.6919310  50.5439310  73.5469310   8.0889310  46.3669310  71.2099310
   7.4789310  45.6309310  71.2659310   7.6569310  46.9909310  70.6269310
   7.9559310  46.3519310  71.1429310   6.0509310  42.1469310  62.1749310
   6.6709310  42.5909310  61.5959310   5.2409310  42.6509310  62.0899310
   6.0269310  42.2689310  62.0899310   6.9439310  48.2259310  69.2289310
   6.7709310  48.1489310  68.2909310   7.7269310  48.7729310  69.2839310
   7.0219310  48.2859310  69.1159310   8.7899310  53.1769310  72.8389310
   9.1989310  53.3489310  73.6869310   8.5209310  52.2599310  72.8839310
   8.8079310  53.0819310  72.9529310   7.8039310  37.8389310  71.1069310
   7.5169310  38.6649310  71.4979310   7.5809310  37.9229310  70.1799310
   7.7379310  37.9559310  71.0389310  11.4569310  52.4689310  59.8369310
  12.0439310  52.2919310  59.1019310  10.8659310  53.1489310  59.5129310
  11.4559310  52.5329310  59.7009310  11.8189310  39.1749310  63.5929310
  12.4009310  39.6599310  63.0069310  11.2529310  39.8449310  63.9759310
  11.8209310  39.3229310  63.5669310   9.5119310  45.6809310  64.8219310
  10.3649310  45.3399310  64.5519310   9.5339310  45.6519310  65.7779310
   9.6239310  45.6329310  64.9089310   2.4419310  42.5919310  72.7269310
   1.6879310  42.2619310  72.2379310   2.2409310  42.3939310  73.6409310
   2.3199310  42.5239310  72.7809310  11.5879310  35.7069310  64.3299310
  10.9919310  35.3569310  64.9919310  12.3059310  35.0749310  64.2949310
  11.6039310  35.5819310  64.4099310   7.6579310  46.3519310  60.0369310
   8.0539310  46.6929310  60.8389310   8.1489310  46.7709310  59.3299310
   7.7709310  46.4489310  60.0489310   7.3869310  40.4379310  71.9989310
   8.0799310  40.6319310  72.6309310   6.7509310  41.1439310  72.1169310
   7.3939310  40.5529310  72.0949310   7.8519310  52.7079310  69.4739310
   7.3789310  53.5409310  69.4669310   7.3209310  52.1269310  68.9299310
   7.7229310  52.7399310  69.4039310   2.6319310  35.5519310  57.0949310
   3.5239310  35.3229310  56.8309310   2.1099310  35.4309310  56.3019310
   2.6799310  35.5079310  56.9599310   8.8599310  50.0649310  38.3979310
   7.9979310  50.3929310  38.1419310   8.7639310  49.1129310  38.3969310
   8.7369310  49.9849310  38.3649310   4.5169310  38.9409310  52.0849310
   4.6949310  38.0589310  52.4109310   4.8359310  39.5209310  52.7769310
   4.5809310  38.9019310  52.2159310   4.2049310  46.9369310  44.3309310
   3.7789310  46.3299310  43.7269310   3.5419310  47.6039310  44.5089310
   4.0659310  46.9449310  44.2769310   9.9569310  37.5689310  43.5839310
  10.0249310  36.6219310  43.4599310  10.8259310  37.8339310  43.8849310
  10.0769310  37.4819310  43.6069310  11.0759310  41.8599310  45.4249310
  10.2969310  41.9699310  45.9699310  11.4199310  42.7459310  45.3159310
  11.0199310  41.9869310  45.4809310   2.1719310  37.9879310  39.5729310
   1.9059310  37.5249310  40.3679310   2.1879310  37.3109310  38.8969310
   2.1399310  37.8419310  39.5889310   2.4069310  45.1759310  52.8569310
   2.2789310  44.3109310  53.2459310   2.8499310  45.0009310  52.0259310
   2.4469310  45.0429310  52.7999310   5.2829310  46.1279310  39.8759310
   6.0529310  46.1489310  40.4429310   5.6019310  45.7609310  39.0519310
   5.4219310  46.0839310  39.8429310  11.0189310  45.7649310  41.6059310
  10.6529310  46.4059310  42.2159310  10.2539310  45.3429310  41.2139310
  10.8739310  45.7929310  41.6339310   9.0009310  47.3649310  38.6229310
   9.0429310  47.2309310  37.6759310   9.8869310  47.6319310  38.8659310
   9.1199310  47.3819310  38.5329310   9.3439310  37.7949310  40.7109310
   9.4759310  37.6509310  41.6479310   8.4759310  38.1939310  40.6509310
   9.2499310  37.8269310  40.8239310   5.9939310  49.5319310  45.2119310
   6.1699310  50.3819310  44.8089310   5.2349310  49.1949310  44.7379310
   5.9199310  49.5979310  45.0999310   5.7839310  52.8569310  46.4639310
   6.3699310  53.5939310  46.2889310   5.0019310  53.0429310  45.9449310
   5.7589310  52.9749310  46.3749310   4.5729310  40.9969310  54.0009310
   5.1589310  41.3099310  54.6899310   3.8469310  41.6219310  54.0009310
   4.5549310  41.1169310  54.0889310   4.4649310  37.8919310  46.6619310
   3.5129310  37.8289310  46.7329310   4.7929310  37.1639310  47.1899310
   4.3849310  37.7909310  46.7389310   9.5939310  45.8999310  48.7839310
  10.0339310  46.4069310  49.4669310   8.9219310  45.4029310  49.2499310
   9.5649310  45.9009310  48.9309310  10.8089310  47.6679310  51.0119310
  10.0949310  48.2729310  50.8129310  11.5249310  48.2309310  51.3089310
  10.8099310  47.8169310  51.0249310   4.3209310  48.7289310  39.9499310
   4.6249310  47.8359310  40.1059310   4.8479310  49.2689310  40.5389310
   4.4269310  48.6839310  40.0449310   6.9439310  39.2169310  40.5259310
   7.0479310  39.5609310  41.4129310   6.8139310  39.9929310  39.9809310
   6.9409310  39.3599310  40.5699310   9.5859310  40.0649310  47.8529310
  10.4979310  40.0759310  48.1459310   9.5859310  39.4799310  47.0949310
   9.7029310  39.9909310  47.7939310   7.4309310  44.4019310  49.7039310
   6.5559310  44.1449310  49.4139310   7.7829310  43.6189310  50.1279310
   7.3639310  44.2689310  49.7209310   1.7759310  40.9019310  46.1669310
   1.8619310  40.1179310  46.7099310   2.2159310  41.5889310  46.6669310
   1.8429310  40.8899310  46.2999310  10.4379310  38.5199310  55.5069310
   9.5389310  38.1919310  55.5019310  10.7629310  38.3429310  54.6249310
  10.3639310  38.4549310  55.3939310  10.4539310  49.6419310  41.5029310
  10.5749310  50.5169310  41.1349310  10.6629310  49.0479310  40.7819310
  10.4959310  49.6779310  41.3629310   8.8719310  35.0409310  40.3809310
   8.9999310  35.9559310  40.1289310   7.9229310  34.9459310  40.4659310
   8.7669310  35.1459310  40.3599310   4.9019310  48.9259310  54.6369310
   5.4839310  48.7619310  55.3779310   4.3089310  49.6119310  54.9449310
   4.8999310  48.9929310  54.7709310  12.0469310  36.3789310  38.3819310
  11.8709310  37.2199310  37.9609310  11.2379310  35.8799310  38.2679310
  11.9209310  36.4229310  38.3139310   4.0089310  40.2429310  39.6429310
   3.3829310  39.5189310  39.6669310   4.2269310  40.4019310  40.5609310
   3.9569310  40.1709310  39.7629310  10.4749310  37.7579310  52.9379310
   9.6089310  37.5939310  52.5669310  11.0569310  37.1659310  52.4599310
  10.4389310  37.6609310  52.8289310  10.1809310  43.2079310  39.6439310
   9.7239310  42.9669310  40.4499310  11.1069310  43.0679310  39.8429310
  10.2409310  43.1589310  39.7729310   8.9249310  49.8279310  51.4819310
   8.5739310  49.7249310  52.3669310   9.0729310  50.7699310  51.3919310
   8.8989310  49.9349310  51.5839310  11.0619310  51.5949310  53.3609310
  11.2599310  51.1999310  54.2109310  10.3909310  52.2499310  53.5519310
  11.0009310  51.6279310  53.4939310   8.3059310  38.9249310  45.2319310
   9.0019310  38.5389310  44.6989310   7.6959310  38.2029310  45.3869310
   8.3169310  38.7829310  45.1829310   6.3799310  44.3739310  52.7739310
   5.8229310  43.9799310  52.1019310   5.8039310  44.9839310  53.2339310
   6.2349310  44.4019310  52.7469310  10.2939310  43.6349310  55.9679310
   9.4709310  43.9749310  55.6189310  10.1499310  43.5789310  56.9129310
  10.1709310  43.6709310  56.0439310   4.2069310  40.3609310  42.3069310
   3.3839310  40.6439310  42.7029310   4.8849310  40.7469310  42.8619310
   4.1889310  40.4459310  42.4289310   6.2259310  45.4619310  45.8549310
   6.7709310  45.9629310  46.4619310   5.5319310  46.0689310  45.5979310
   6.2069310  45.6029310  45.8999310   8.9299310  42.7079310  42.0479310
   8.8869310  43.3269310  42.7779310   8.5639310  41.8969310  42.3999310
   8.8779310  42.6839310  42.1869310   3.6799310  43.5719310  42.5269310
   3.0079310  42.8909310  42.5569310   3.7589310  43.7889310  41.5979310
   3.6039310  43.5129310  42.4119310   4.8659310  52.5509310  51.6449310
   4.3169310  52.4819310  50.8649310   5.2299310  51.6739310  51.7609310
   4.8429310  52.4299310  51.5599310   7.6949310  43.7179310  55.1559310
   7.0039310  43.0779310  55.3239310   7.4869310  44.0739310  54.2929310
   7.5799310  43.6809310  55.0669310   5.1189310  38.0199310  43.8019310
   4.8249310  38.7349310  43.2379310   4.8479310  38.2809310  44.6819310
   5.0469310  38.1449310  43.8419310   3.5729310  49.6759310  48.8839310
   3.5089310  49.1559310  49.6859310   4.1179310  50.4249310  49.1269310
   3.6339310  49.7049310  49.0179310   9.0719310  48.5719310  45.5029310
   8.1569310  48.5819310  45.2199310   9.1939310  47.7039310  45.8879310
   8.9699310  48.4619310  45.5159310   8.0319310  41.3929310  38.7529310
   8.5099310  41.0399310  38.0039310   8.5339310  42.1649310  39.0159310
   8.1569310  41.4469310  38.6909310   9.8839310  32.4729310  48.1519310
  10.0299310  32.8779310  49.0069310   8.9389310  32.5409310  48.0129310
   9.7819310  32.5329310  48.2439310   5.9719310  42.6079310  45.8659310
   6.4699310  42.4009310  45.0749310   6.1559310  43.5329310  46.0299310
   6.0589310  42.6999310  45.7859310  10.6599310  53.3799310  47.9339310
  10.5129310  52.4369310  48.0149310  11.3139310  53.5779310  48.6049310
  10.7249310  53.2839310  48.0299310  11.9929310  49.6579310  46.7199310
  11.1489310  50.0709310  46.9039310  11.8609310  48.7359310  46.9379310
  11.8679310  49.5929310  46.7709310   3.2929310  43.2039310  46.4889310
   2.8859310  43.9639310  46.0729310   4.1549310  43.1389310  46.0789310
   3.3509310  43.2929310  46.3829310   7.8299310  44.4429310  43.9709310
   8.5039310  44.8549310  44.5109310   7.0199310  44.8889310  44.2169310
   7.8129310  44.5529310  44.0709310   6.2869310  38.9439310  50.0129310
   5.8329310  39.3859310  49.2949310   5.7449310  39.1189310  50.7819310
   6.1599310  39.0229310  50.0189310  11.4519310  43.8719310  48.9569310
  11.0629310  43.3979310  49.6929310  10.9169310  44.6609310  48.8709310
  11.3339310  43.9119310  49.0399310   4.8259310  40.4199310  47.8229310
   5.4519310  40.8699310  47.2559310   4.6839310  39.5729310  47.3989310
   4.8879310  40.3689310  47.6959310   3.3609310  48.2969310  51.3219310
   3.7539310  49.1179310  51.6179310   2.4479310  48.3519310  51.6039310
   3.2949310  48.4089310  51.3959310   4.8499310  37.1649310  40.5789310
   4.0909310  37.4129310  40.0509310   5.4049310  37.9449310  40.5799310
   4.8239310  37.2969310  40.5119310   6.9719310  36.3489310  45.0919310
   6.3099310  36.7549310  44.5319310   7.6669310  36.0859310  44.4889310
   6.9759310  36.3679310  44.9429310   8.5849310  41.5809310  50.4709310
   8.3199310  40.9289310  51.1209310   8.8039310  41.0679310  49.6929310
   8.5789310  41.4319310  50.4549310   1.7809310  48.5809310  38.9789310
   2.6249310  48.5429310  39.4299310   2.0039310  48.7859310  38.0709310
   1.9179310  48.6019310  38.9209310   6.1439310  48.8259310  47.7069310
   6.2419310  49.0729310  46.7869310   5.2899310  49.1759310  47.9589310
   6.0469310  48.9019310  47.6219310   3.5339310  53.2399310  45.0459310
   3.3489310  52.4129310  44.5999310   3.2219310  53.9129310  44.4409310
   3.4699310  53.2199310  44.9109310   9.6379310  35.1099310  56.6709310
   9.0969310  34.5949310  57.2689310   9.1739310  35.9429310  56.5839310
   9.5099310  35.1509310  56.7369310   5.1219310  52.4749310  38.1359310
   5.2799310  53.3139310  37.7029310   5.3839310  52.6219310  39.0449310
   5.1759310  52.6009310  38.1969310   7.2319310  51.2519310  48.2459310
   6.6879310  51.8519310  47.7349310   6.8409310  50.3909310  48.0999310
   7.1129310  51.2189310  48.1619310  11.0069310  42.6609310  51.8689310
  10.1109310  42.3359310  51.7819310  10.9069310  43.5559310  52.1939310
  10.8789310  42.7339310  51.8999310   3.2029310  44.3479310  39.9069310
   3.9329310  44.9679310  39.8959310   2.4209310  44.8989310  39.8759310
   3.1959310  44.4979310  39.9009310   2.8349310  41.7289310  49.0229310
   2.3859310  40.9749310  49.4049310   3.5569310  41.3489310  48.5229310
   2.8699310  41.5839310  49.0079310   4.3699310  45.8529310  50.7349310
   4.0939310  46.6769310  51.1369310   5.3209310  45.8399310  50.8439310
   4.4569310  45.9569310  50.7999310   3.7259310  53.0759310  48.9839310
   4.5159310  53.6139310  48.9299310   3.1259310  53.4679310  48.3499310
   3.7499310  53.1949310  48.8959310   3.5089310  38.8099310  55.4249310
   3.0429310  39.4079310  56.0089310   4.1039310  39.3739310  54.9299310
   3.5249310  38.9579310  55.4359310   6.7159310  51.7059310  43.8359310
   6.3479310  52.2869310  44.5009310   7.6069310  52.0289310  43.7019310
   6.7829310  51.8219310  43.9039310   4.8209310  44.1429310  48.8209310
   4.5529310  44.7859310  49.4779310   4.0219310  43.9609310  48.3249310
   4.6839310  44.2019310  48.8409310   4.7979310  42.4769310  51.3829310
   4.6349310  42.7859310  50.4919310   3.9369310  42.2129310  51.7059310
   4.6669310  42.4829310  51.3109310   5.0199310  36.6979310  55.5209310
   5.0169310  36.4079310  54.6089310   4.3479310  37.3789310  55.5579310
   4.9329310  36.7479310  55.4089310   4.7299310  46.1399310  53.9189310
   3.9119310  45.9839310  53.4479310   4.7779310  47.0919310  54.0079310
   4.6319310  46.2419310  53.8699310   9.0799310  40.8359310  55.1499310
   9.7929310  40.2039310  55.2449310   9.5199310  41.6729310  55.0039310
   9.2269310  40.8619310  55.1429310  10.5529310  52.1129310  50.7189310
  10.8349310  52.0169310  51.6289310   9.7719310  52.6639310  50.7679310
  10.4889310  52.1709310  50.8419310  10.4739310  50.8909310  44.1539310
  10.5439310  50.2619310  44.8709310  10.5399310  50.3589310  43.3609310
  10.4909310  50.7429310  44.1439310   3.1219310  42.0459310  37.9239310
   3.1029310  42.6959310  38.6259310   3.4769310  41.2579310  38.3359310
   3.1649310  42.0289310  38.0659310   8.1049310  37.2959310  55.3449310
   8.1659310  36.9489310  54.4549310   7.1649310  37.3439310  55.5189310
   7.9919310  37.2579310  55.2529310   5.0839310  50.9249310  41.7939310
   4.3989310  50.8529310  42.4589310   5.8819310  51.1029310  42.2909310
   5.0979310  50.9379310  41.9429310   2.7949310  36.5489310  42.7759310
   2.5699310  37.3339310  43.2749310   3.6939310  36.7009310  42.4839310
   2.8819310  36.6689310  42.8029310   8.2219310  36.2689310  47.6459310
   9.0929310  35.8759310  47.7029310   8.1229310  36.4999310  46.7229310
   8.3209310  36.2479310  47.5349310   5.1299310  36.5359310  52.7799310
   4.8699310  35.7599310  52.2829310   6.0859310  36.5409310  52.7319310
   5.2189310  36.4369310  52.7099310   8.2469310  40.1339310  42.8939310
   8.0259310  39.8839310  43.7919310   9.0629310  39.6679310  42.7109310
   8.3229310  40.0419310  42.9859310   6.0929310  49.8969310  38.0409310
   5.6929310  50.7649310  38.0909310   5.6169310  49.3759310  38.6879310
   5.9809310  49.9419310  38.1299310   5.3499310  49.8889310  52.1019310
   5.1469310  49.5789310  52.9839310   5.8639310  49.1809310  51.7119310
   5.3899310  49.7579310  52.1649310  10.9379310  40.1579310  40.7299310
  10.1149310  39.6709310  40.6819310  10.6859310  41.0219310  41.0579310
  10.8009310  40.2059310  40.7659310   7.9949310  47.4909310  54.7489310
   7.3549310  46.9579310  55.2209310   7.9569310  47.1679310  53.8479310
   7.9079310  47.3809310  54.6939310  10.6619310  45.3279310  52.5659310
   9.7709310  45.5439310  52.8439310  10.9389310  46.0809310  52.0439310
  10.5829310  45.4519310  52.5349310   9.7299310  47.3499310  42.9979310
   9.7519310  47.4659310  43.9479310   9.9029310  48.2229310  42.6469310
   9.7549310  47.4769310  43.0749310   9.1049310  53.2899310  43.3049310
   8.8409310  53.2549310  42.3859310   9.7269310  52.5689310  43.4039310
   9.1509310  53.1929310  43.1999310   6.2789310  53.2859310  40.8159310
   5.7629310  52.6009310  41.2419310   5.7959310  54.0929310  40.9899310
   6.1509310  53.3009310  40.8929310   6.0159310  54.8289310  49.1169310
   6.7909310  54.6729310  48.5779310   5.9849310  55.7799310  49.2229310
   6.1109310  54.9309310  49.0619310   2.5859310  51.2409310  43.3459310
   2.3479310  50.4279310  43.7899310   1.7809310  51.5189310  42.9089310
   2.4529310  51.1729310  43.3469310   7.7789310  50.6609310  54.6529310
   8.0489310  49.7569310  54.8129310   6.8269310  50.6479310  54.7539310
   7.6919310  50.5439310  54.6869310   8.0889310  46.3669310  52.3499310
   7.4789310  45.6309310  52.4059310   7.6569310  46.9909310  51.7669310
   7.9559310  46.3519310  52.2829310   6.0509310  42.1469310  43.3149310
   6.6709310  42.5909310  42.7359310   5.2409310  42.6509310  43.2299310
   6.0269310  42.2689310  43.2299310   6.9439310  48.2259310  50.3689310
   6.7709310  48.1489310  49.4309310   7.7269310  48.7729310  50.4239310
   7.0219310  48.2859310  50.2559310   8.7899310  53.1769310  53.9789310
   9.1989310  53.3489310  54.8269310   8.5209310  52.2599310  54.0239310
   8.8079310  53.0819310  54.0929310   7.8039310  37.8389310  52.2469310
   7.5169310  38.6649310  52.6379310   7.5809310  37.9229310  51.3199310
   7.7379310  37.9559310  52.1789310  11.4569310  52.4689310  40.9769310
  12.0439310  52.2919310  40.2419310  10.8659310  53.1489310  40.6529310
  11.4559310  52.5329310  40.8409310  11.2969310  50.8239310  55.9719310
  10.5249310  50.8549310  56.5359310  11.9139310  51.4339310  56.3779310
  11.2769310  50.9059310  56.0969310   6.1979310  45.9509310  56.0409310
   5.3869310  45.9889310  55.5339310   6.5619310  45.0879310  55.8459310
   6.1409310  45.8459310  55.9509310   9.5119310  45.6809310  45.9619310
  10.3649310  45.3399310  45.6919310   9.5339310  45.6519310  46.9179310
   9.6239310  45.6329310  46.0489310   2.4419310  42.5919310  53.8669310
   1.6879310  42.2619310  53.3779310   2.2409310  42.3939310  54.7809310
   2.3199310  42.5239310  53.9209310   5.9919310  41.9149310  55.9359310
   5.2079310  41.8759310  56.4839310   6.6289310  41.3639310  56.3899310
   5.9729310  41.8399310  56.0639310  11.5879310  35.7069310  45.4699310
  10.9919310  35.3569310  46.1319310  12.3059310  35.0749310  45.4349310
  11.6039310  35.5819310  45.5499310   7.6579310  46.3519310  41.1769310
   8.0539310  46.6929310  41.9789310   8.1489310  46.7709310  40.4699310
   7.7709310  46.4489310  41.1889310   7.3869310  40.4379310  53.1389310
   8.0799310  40.6319310  53.7709310   6.7509310  41.1439310  53.2569310
   7.3939310  40.5529310  53.2349310   7.8519310  52.7079310  50.6139310
   7.3789310  53.5409310  50.6069310   7.3209310  52.1269310  50.0699310
   7.7229310  52.7399310  50.5439310   2.6319310  35.5519310  38.2349310
   3.5239310  35.3229310  37.9709310   2.1099310  35.4309310  37.4419310
   2.6799310  35.5079310  38.0999310   8.8599310  50.0649310  19.5379310
   7.9979310  50.3929310  19.2819310   8.7639310  49.1129310  19.5369310
   8.7369310  49.9849310  19.5049310   4.5169310  38.9409310  33.2249310
   4.6949310  38.0589310  33.5509310   4.8359310  39.5209310  33.9169310
   4.5809310  38.9019310  33.3559310   4.2049310  46.9369310  25.4709310
   3.7789310  46.3299310  24.8669310   3.5419310  47.6039310  25.6489310
   4.0659310  46.9449310  25.4169310   9.9569310  37.5689310  24.7239310
  10.0249310  36.6219310  24.5999310  10.8259310  37.8339310  25.0249310
  10.0769310  37.4819310  24.7469310  11.0759310  41.8599310  26.5649310
  10.2969310  41.9699310  27.1099310  11.4199310  42.7459310  26.4559310
  11.0199310  41.9869310  26.6209310   2.1719310  37.9879310  20.7129310
   1.9059310  37.5249310  21.5079310   2.1879310  37.3109310  20.0369310
   2.1399310  37.8419310  20.7289310   2.4069310  45.1759310  33.9969310
   2.2789310  44.3109310  34.3859310   2.8499310  45.0009310  33.1659310
   2.4469310  45.0429310  33.9399310   5.2829310  46.1279310  21.0159310
   6.0529310  46.1489310  21.5829310   5.6019310  45.7609310  20.1919310
   5.4219310  46.0839310  20.9829310  11.0189310  45.7649310  22.7459310
  10.6529310  46.4059310  23.3559310  10.2539310  45.3429310  22.3539310
  10.8739310  45.7929310  22.7739310   9.0009310  47.3649310  19.7629310
   9.0429310  47.2309310  18.8159310   9.8869310  47.6319310  20.0059310
   9.1199310  47.3819310  19.6729310   9.3439310  37.7949310  21.8509310
   9.4759310  37.6509310  22.7879310   8.4759310  38.1939310  21.7909310
   9.2499310  37.8269310  21.9639310   5.9939310  49.5319310  26.3519310
   6.1699310  50.3819310  25.9489310   5.2349310  49.1949310  25.8779310
   5.9199310  49.5979310  26.2399310   5.7839310  52.8569310  27.6039310
   6.3699310  53.5939310  27.4289310   5.0019310  53.0429310  27.0849310
   5.7589310  52.9749310  27.5149310   4.5729310  40.9969310  35.1409310
   5.1589310  41.3099310  35.8299310   3.8469310  41.6219310  35.1409310
   4.5549310  41.1169310  35.2289310   4.4649310  37.8919310  27.8019310
   3.5129310  37.8289310  27.8729310   4.7929310  37.1639310  28.3299310
   4.3849310  37.7909310  27.8789310   9.5939310  45.8999310  29.9239310
  10.0339310  46.4069310  30.6069310   8.9219310  45.4029310  30.3899310
   9.5649310  45.9009310  30.0709310  10.8089310  47.6679310  32.1519310
  10.0949310  48.2729310  31.9529310  11.5249310  48.2309310  32.4489310
  10.8099310  47.8169310  32.1649310   4.3209310  48.7289310  21.0899310
   4.6249310  47.8359310  21.2459310   4.8479310  49.2689310  21.6789310
   4.4269310  48.6839310  21.1849310   6.9439310  39.2169310  21.6659310
   7.0479310  39.5609310  22.5529310   6.8139310  39.9929310  21.1209310
   6.9409310  39.3599310  21.7099310   9.5859310  40.0649310  28.9929310
  10.4979310  40.0759310  29.2859310   9.5859310  39.4799310  28.2349310
   9.7029310  39.9909310  28.9339310   7.4309310  44.4019310  30.8439310
   6.5559310  44.1449310  30.5539310   7.7829310  43.6189310  31.2679310
   7.3639310  44.2689310  30.8609310   1.7759310  40.9019310  27.3069310
   1.8619310  40.1179310  27.8499310   2.2159310  41.5889310  27.8069310
   1.8429310  40.8899310  27.4399310  10.4379310  38.5199310  36.6469310
   9.5389310  38.1919310  36.6419310  10.7629310  38.3429310  35.7649310
  10.3639310  38.4549310  36.5339310  10.4539310  49.6419310  22.6429310
  10.5749310  50.5169310  22.2749310  10.6629310  49.0479310  21.9219310
  10.4959310  49.6779310  22.5029310   8.8719310  35.0409310  21.5209310
   8.9999310  35.9559310  21.2689310   7.9229310  34.9459310  21.6059310
   8.7669310  35.1459310  21.4999310   4.9019310  48.9259310  35.7769310
   5.4839310  48.7619310  36.5179310   4.3089310  49.6119310  36.0849310
   4.8999310  48.9929310  35.9109310  12.0469310  36.3789310  19.5219310
  11.8709310  37.2199310  19.1009310  11.2379310  35.8799310  19.4079310
  11.9209310  36.4229310  19.4539310  14.6159310  42.3069310  26.8999310
  14.6299310  41.9939310  27.8049310  14.5669310  43.2599310  26.9769310
  14.6119310  42.3889310  27.0259310   4.0089310  40.2429310  20.7829310
   3.3829310  39.5189310  20.8069310   4.2269310  40.4019310  21.7009310
   3.9569310  40.1709310  20.9029310  10.4749310  37.7579310  34.0779310
   9.6089310  37.5939310  33.7069310  11.0569310  37.1659310  33.5999310
  10.4389310  37.6609310  33.9689310  10.1809310  43.2079310  20.7839310
   9.7239310  42.9669310  21.5899310  11.1069310  43.0679310  20.9829310
  10.2409310  43.1589310  20.9129310   8.9249310  49.8279310  32.6219310
   8.5739310  49.7249310  33.5069310   9.0729310  50.7699310  32.5319310
   8.8989310  49.9349310  32.7239310  11.0619310  51.5949310  34.5009310
  11.2599310  51.1999310  35.3509310  10.3909310  52.2499310  34.6919310
  11.0009310  51.6279310  34.6339310   8.3059310  38.9249310  26.3719310
   9.0019310  38.5389310  25.8389310   7.6959310  38.2029310  26.5269310
   8.3169310  38.7829310  26.3229310   6.3799310  44.3739310  33.9139310
   5.8229310  43.9799310  33.2419310   5.8039310  44.9839310  34.3739310
   6.2349310  44.4019310  33.8869310  10.2939310  43.6349310  37.1079310
   9.4709310  43.9749310  36.7589310  10.1499310  43.5789310  38.0529310
  10.1709310  43.6709310  37.1839310   4.2069310  40.3609310  23.4469310
   3.3839310  40.6439310  23.8429310   4.8849310  40.7469310  24.0019310
   4.1889310  40.4459310  23.5689310   6.2259310  45.4619310  26.9949310
   6.7709310  45.9629310  27.6019310   5.5319310  46.0689310  26.7379310
   6.2069310  45.6029310  27.0399310   8.9299310  42.7079310  23.1879310
   8.8869310  43.3269310  23.9179310   8.5639310  41.8969310  23.5399310
   8.8779310  42.6839310  23.3269310   3.6799310  43.5719310  23.6669310
   3.0079310  42.8909310  23.6969310   3.7589310  43.7889310  22.7379310
   3.6039310  43.5129310  23.5519310   4.8659310  52.5509310  32.7849310
   4.3169310  52.4819310  32.0049310   5.2299310  51.6739310  32.9009310
   4.8429310  52.4299310  32.6999310   7.6949310  43.7179310  36.2959310
   7.0039310  43.0779310  36.4639310   7.4869310  44.0739310  35.4329310
   7.5799310  43.6809310  36.2069310   5.1189310  38.0199310  24.9419310
   4.8249310  38.7349310  24.3779310   4.8479310  38.2809310  25.8219310
   5.0469310  38.1449310  24.9819310   3.5729310  49.6759310  30.0239310
   3.5089310  49.1559310  30.8259310   4.1179310  50.4249310  30.2669310
   3.6339310  49.7049310  30.1579310   9.0719310  48.5719310  26.6429310
   8.1569310  48.5819310  26.3599310   9.1939310  47.7039310  27.0279310
   8.9699310  48.4619310  26.6559310   8.0319310  41.3929310  19.8929310
   8.5099310  41.0399310  19.1439310   8.5339310  42.1649310  20.1559310
   8.1569310  41.4469310  19.8309310   9.8839310  32.4729310  29.2919310
  10.0299310  32.8779310  30.1469310   8.9389310  32.5409310  29.1529310
   9.7819310  32.5329310  29.3839310   5.9719310  42.6079310  27.0059310
   6.4699310  42.4009310  26.2149310   6.1559310  43.5329310  27.1699310
   6.0589310  42.6999310  26.9259310  10.6599310  53.3799310  29.0739310
  10.5129310  52.4369310  29.1549310  11.3139310  53.5779310  29.7449310
  10.7249310  53.2839310  29.1699310  11.9929310  49.6579310  27.8599310
  11.1489310  50.0709310  28.0439310  11.8609310  48.7359310  28.0779310
  11.8679310  49.5929310  27.9109310   3.2929310  43.2039310  27.6289310
   2.8859310  43.9639310  27.2129310   4.1549310  43.1389310  27.2189310
   3.3509310  43.2929310  27.5229310   7.8299310  44.4429310  25.1109310
   8.5039310  44.8549310  25.6509310   7.0199310  44.8889310  25.3569310
   7.8129310  44.5529310  25.2109310   6.2869310  38.9439310  31.1529310
   5.8329310  39.3859310  30.4349310   5.7449310  39.1189310  31.9219310
   6.1599310  39.0229310  31.1589310  11.4519310  43.8719310  30.0969310
  11.0629310  43.3979310  30.8329310  10.9169310  44.6609310  30.0109310
  11.3339310  43.9119310  30.1799310   4.8259310  40.4199310  28.9629310
   5.4519310  40.8699310  28.3959310   4.6839310  39.5729310  28.5389310
   4.8879310  40.3689310  28.8359310   3.3609310  48.2969310  32.4619310
   3.7539310  49.1179310  32.7579310   2.4479310  48.3519310  32.7439310
   3.2949310  48.4089310  32.5359310   4.8499310  37.1649310  21.7189310
   4.0909310  37.4129310  21.1909310   5.4049310  37.9449310  21.7199310
   4.8239310  37.2969310  21.6519310   6.9719310  36.3489310  26.2319310
   6.3099310  36.7549310  25.6719310   7.6669310  36.0859310  25.6289310
   6.9759310  36.3679310  26.0829310   8.5849310  41.5809310  31.6109310
   8.3199310  40.9289310  32.2609310   8.8039310  41.0679310  30.8329310
   8.5789310  41.4319310  31.5949310   1.7809310  48.5809310  20.1189310
   2.6249310  48.5429310  20.5699310   2.0039310  48.7859310  19.2109310
   1.9179310  48.6019310  20.0609310   6.1439310  48.8259310  28.8469310
   6.2419310  49.0729310  27.9269310   5.2899310  49.1759310  29.0989310
   6.0469310  48.9019310  28.7619310   3.5339310  53.2399310  26.1859310
   3.3489310  52.4129310  25.7399310   3.2219310  53.9129310  25.5809310
   3.4699310  53.2199310  26.0509310   9.6379310  35.1099310  37.8109310
   9.0969310  34.5949310  38.4089310   9.1739310  35.9429310  37.7239310
   9.5099310  35.1509310  37.8769310   5.1219310  52.4749310  19.2759310
   5.2799310  53.3139310  18.8429310   5.3839310  52.6219310  20.1849310
   5.1759310  52.6009310  19.3369310   7.2319310  51.2519310  29.3859310
   6.6879310  51.8519310  28.8749310   6.8409310  50.3909310  29.2399310
   7.1129310  51.2189310  29.3019310  11.0069310  42.6609310  33.0089310
  10.1109310  42.3359310  32.9219310  10.9069310  43.5559310  33.3339310
  10.8789310  42.7339310  33.0399310   3.2029310  44.3479310  21.0469310
   3.9329310  44.9679310  21.0359310   2.4209310  44.8989310  21.0159310
   3.1959310  44.4979310  21.0409310   2.8349310  41.7289310  30.1629310
   2.3859310  40.9749310  30.5449310   3.5569310  41.3489310  29.6629310
   2.8699310  41.5839310  30.1479310   4.3699310  45.8529310  31.8749310
   4.0939310  46.6769310  32.2769310   5.3209310  45.8399310  31.9839310
   4.4569310  45.9569310  31.9399310   3.7259310  53.0759310  30.1239310
   4.5159310  53.6139310  30.0699310   3.1259310  53.4679310  29.4899310
   3.7499310  53.1949310  30.0359310   3.5089310  38.8099310  36.5649310
   3.0429310  39.4079310  37.1489310   4.1039310  39.3739310  36.0699310
   3.5249310  38.9579310  36.5759310   6.7159310  51.7059310  24.9759310
   6.3479310  52.2869310  25.6409310   7.6069310  52.0289310  24.8419310
   6.7829310  51.8219310  25.0439310   4.8209310  44.1429310  29.9609310
   4.5529310  44.7859310  30.6179310   4.0219310  43.9609310  29.4649310
   4.6839310  44.2019310  29.9809310   4.7979310  42.4769310  32.5229310
   4.6349310  42.7859310  31.6319310   3.9369310  42.2129310  32.8459310
   4.6669310  42.4829310  32.4509310   5.0199310  36.6979310  36.6609310
   5.0169310  36.4079310  35.7489310   4.3479310  37.3789310  36.6979310
   4.9329310  36.7479310  36.5489310   4.7299310  46.1399310  35.0589310
   3.9119310  45.9839310  34.5879310   4.7779310  47.0919310  35.1479310
   4.6319310  46.2419310  35.0099310   9.0799310  40.8359310  36.2899310
   9.7929310  40.2039310  36.3849310   9.5199310  41.6729310  36.1439310
   9.2269310  40.8619310  36.2829310  10.5529310  52.1129310  31.8589310
  10.8349310  52.0169310  32.7689310   9.7719310  52.6639310  31.9079310
  10.4889310  52.1709310  31.9819310  10.4739310  50.8909310  25.2939310
  10.5439310  50.2619310  26.0109310  10.5399310  50.3589310  24.5009310
  10.4909310  50.7429310  25.2839310   3.1219310  42.0459310  19.0639310
   3.1029310  42.6959310  19.7659310   3.4769310  41.2579310  19.4759310
   3.1649310  42.0289310  19.2059310   8.1049310  37.2959310  36.4849310
   8.1659310  36.9489310  35.5949310   7.1649310  37.3439310  36.6589310
   7.9919310  37.2579310  36.3929310   5.0839310  50.9249310  22.9339310
   4.3989310  50.8529310  23.5989310   5.8819310  51.1029310  23.4309310
   5.0979310  50.9379310  23.0829310   2.7949310  36.5489310  23.9159310
   2.5699310  37.3339310  24.4149310   3.6939310  36.7009310  23.6239310
   2.8819310  36.6689310  23.9429310   8.2219310  36.2689310  28.7859310
   9.0929310  35.8759310  28.8429310   8.1229310  36.4999310  27.8629310
   8.3209310  36.2479310  28.6749310   5.1299310  36.5359310  33.9199310
   4.8699310  35.7599310  33.4229310   6.0859310  36.5409310  33.8719310
   5.2189310  36.4369310  33.8499310   8.2469310  40.1339310  24.0339310
   8.0259310  39.8839310  24.9319310   9.0629310  39.6679310  23.8509310
   8.3229310  40.0419310  24.1259310   6.0929310  49.8969310  19.1809310
   5.6929310  50.7649310  19.2309310   5.6169310  49.3759310  19.8279310
   5.9809310  49.9419310  19.2699310   5.3499310  49.8889310  33.2419310
   5.1469310  49.5789310  34.1239310   5.8639310  49.1809310  32.8519310
   5.3899310  49.7579310  33.3049310  10.9379310  40.1579310  21.8699310
  10.1149310  39.6709310  21.8219310  10.6859310  41.0219310  22.1979310
  10.8009310  40.2059310  21.9059310   7.9949310  47.4909310  35.8889310
   7.3549310  46.9579310  36.3609310   7.9569310  47.1679310  34.9879310
   7.9079310  47.3809310  35.8339310  10.6619310  45.3279310  33.7059310
   9.7709310  45.5439310  33.9839310  10.9389310  46.0809310  33.1839310
  10.5829310  45.4519310  33.6749310   9.7299310  47.3499310  24.1379310
   9.7519310  47.4659310  25.0879310   9.9029310  48.2229310  23.7869310
   9.7549310  47.4769310  24.2149310   9.1049310  53.2899310  24.4449310
   8.8409310  53.2549310  23.5259310   9.7269310  52.5689310  24.5439310
   9.1509310  53.1929310  24.3399310   6.2789310  53.2859310  21.9559310
   5.7629310  52.6009310  22.3819310   5.7959310  54.0929310  22.1299310
   6.1509310  53.3009310  22.0329310   6.0159310  54.8289310  30.2569310
   6.7909310  54.6729310  29.7179310   5.9849310  55.7799310  30.3629310
   6.1109310  54.9309310  30.2019310   2.5859310  51.2409310  24.4859310
   2.3479310  50.4279310  24.9299310   1.7809310  51.5189310  24.0489310
   2.4529310  51.1729310  24.4869310   7.7789310  50.6609310  35.7929310
   8.0489310  49.7569310  35.9529310   6.8269310  50.6479310  35.8939310
   7.6919310  50.5439310  35.8269310   8.0889310  46.3669310  33.4899310
   7.4789310  45.6309310  33.5459310   7.6569310  46.9909310  32.9069310
   7.9559310  46.3519310  33.4229310   6.0509310  42.1469310  24.4549310
   6.6709310  42.5909310  23.8759310   5.2409310  42.6509310  24.3699310
   6.0269310  42.2689310  24.3699310   6.9439310  48.2259310  31.5089310
   6.7709310  48.1489310  30.5709310   7.7269310  48.7729310  31.5639310
   7.0219310  48.2859310  31.3959310   8.7899310  53.1769310  35.1189310
   9.1989310  53.3489310  35.9669310   8.5209310  52.2599310  35.1639310
   8.8079310  53.0819310  35.2329310   7.8039310  37.8389310  33.3869310
   7.5169310  38.6649310  33.7779310   7.5809310  37.9229310  32.4599310
   7.7379310  37.9559310  33.3189310  11.4569310  52.4689310  22.1169310
  12.0439310  52.2919310  21.3819310  10.8659310  53.1489310  21.7929310
  11.4559310  52.5329310  21.9809310  11.2969310  50.8239310  37.1119310
  10.5249310  50.8549310  37.6759310  11.9139310  51.4339310  37.5179310
  11.2769310  50.9059310  37.2369310  11.8189310  39.1749310  25.8729310
  12.4009310  39.6599310  25.2869310  11.2529310  39.8449310  26.2559310
  11.8209310  39.3229310  25.8469310   6.1979310  45.9509310  37.1809310
   5.3869310  45.9889310  36.6739310   6.5619310  45.0879310  36.9859310
   6.1409310  45.8459310  37.0909310   9.5119310  45.6809310  27.1019310
  10.3649310  45.3399310  26.8319310   9.5339310  45.6519310  28.0579310
   9.6239310  45.6329310  27.1889310   2.4419310  42.5919310  35.0069310
   1.6879310  42.2619310  34.5179310   2.2409310  42.3939310  35.9209310
   2.3199310  42.5239310  35.0609310   5.9919310  41.9149310  37.0759310
   5.2079310  41.8759310  37.6239310   6.6289310  41.3639310  37.5299310
   5.9729310  41.8399310  37.2039310  11.5879310  35.7069310  26.6099310
  10.9919310  35.3569310  27.2719310  12.3059310  35.0749310  26.5749310
  11.6039310  35.5819310  26.6899310   7.6579310  46.3519310  22.3169310
   8.0539310  46.6929310  23.1189310   8.1489310  46.7709310  21.6099310
   7.7709310  46.4489310  22.3289310   7.3869310  40.4379310  34.2789310
   8.0799310  40.6319310  34.9109310   6.7509310  41.1439310  34.3969310
   7.3939310  40.5529310  34.3749310   7.8519310  52.7079310  31.7539310
   7.3789310  53.5409310  31.7469310   7.3209310  52.1269310  31.2099310
   7.7229310  52.7399310  31.6839310   2.6319310  35.5519310  19.3749310
   3.5239310  35.3229310  19.1109310   2.1099310  35.4309310  18.5819310
   2.6799310  35.5079310  19.2399310   4.5169310  38.9409310  14.3649310
   4.6949310  38.0589310  14.6909310   4.8359310  39.5209310  15.0569310
   4.5809310  38.9019310  14.4959310   4.2049310  46.9369310   6.6109310
   3.7789310  46.3299310   6.0069310   3.5419310  47.6039310   6.7889310
   4.0659310  46.9449310   6.5569310   9.9569310  37.5689310   5.8639310
  10.0249310  36.6219310   5.7399310  10.8259310  37.8339310   6.1649310
  10.0769310  37.4819310   5.8869310  11.0759310  41.8599310   7.7049310
  10.2969310  41.9699310   8.2499310  11.4199310  42.7459310   7.5959310
  11.0199310  41.9869310   7.7609310   2.4069310  45.1759310  15.1369310
   2.2789310  44.3109310  15.5259310   2.8499310  45.0009310  14.3059310
   2.4469310  45.0429310  15.0799310  11.0189310  45.7649310   3.8859310
  10.6529310  46.4059310   4.4959310  10.2539310  45.3429310   3.4939310
  10.8739310  45.7929310   3.9139310   9.3439310  37.7949310   2.9909310
   9.4759310  37.6509310   3.9279310   8.4759310  38.1939310   2.9309310
   9.2499310  37.8269310   3.1039310   5.9939310  49.5319310   7.4919310
   6.1699310  50.3819310   7.0889310   5.2349310  49.1949310   7.0179310
   5.9199310  49.5979310   7.3799310   5.7839310  52.8569310   8.7439310
   6.3699310  53.5939310   8.5689310   5.0019310  53.0429310   8.2249310
   5.7589310  52.9749310   8.6549310   4.5729310  40.9969310  16.2809310
   5.1589310  41.3099310  16.9699310   3.8469310  41.6219310  16.2809310
   4.5549310  41.1169310  16.3689310   4.4649310  37.8919310   8.9419310
   3.5129310  37.8289310   9.0129310   4.7929310  37.1639310   9.4699310
   4.3849310  37.7909310   9.0189310   9.5939310  45.8999310  11.0639310
  10.0339310  46.4069310  11.7469310   8.9219310  45.4029310  11.5299310
   9.5649310  45.9009310  11.2109310  10.8089310  47.6679310  13.2919310
  10.0949310  48.2729310  13.0929310  11.5249310  48.2309310  13.5889310
  10.8099310  47.8169310  13.3049310   4.3209310  48.7289310   2.2299310
   4.6249310  47.8359310   2.3859310   4.8479310  49.2689310   2.8189310
   4.4269310  48.6839310   2.3249310   6.9439310  39.2169310   2.8059310
   7.0479310  39.5609310   3.6929310   6.8139310  39.9929310   2.2609310
   6.9409310  39.3599310   2.8499310   9.5859310  40.0649310  10.1329310
  10.4979310  40.0759310  10.4259310   9.5859310  39.4799310   9.3749310
   9.7029310  39.9909310  10.0739310   7.4309310  44.4019310  11.9839310
   6.5559310  44.1449310  11.6939310   7.7829310  43.6189310  12.4079310
   7.3639310  44.2689310  12.0009310   1.7759310  40.9019310   8.4469310
   1.8619310  40.1179310   8.9899310   2.2159310  41.5889310   8.9469310
   1.8429310  40.8899310   8.5799310  10.4379310  38.5199310  17.7869310
   9.5389310  38.1919310  17.7819310  10.7629310  38.3429310  16.9049310
  10.3639310  38.4549310  17.6739310  10.4539310  49.6419310   3.7829310
  10.5749310  50.5169310   3.4149310  10.6629310  49.0479310   3.0619310
  10.4959310  49.6779310   3.6429310   8.8719310  35.0409310   2.6609310
   8.9999310  35.9559310   2.4089310   7.9229310  34.9459310   2.7459310
   8.7669310  35.1459310   2.6399310   4.9019310  48.9259310  16.9169310
   5.4839310  48.7619310  17.6579310   4.3089310  49.6119310  17.2249310
   4.8999310  48.9929310  17.0509310  14.6159310  42.3069310   8.0399310
  14.6299310  41.9939310   8.9449310  14.5669310  43.2599310   8.1169310
  14.6119310  42.3889310   8.1659310   4.0089310  40.2429310   1.9229310
   3.3829310  39.5189310   1.9469310   4.2269310  40.4019310   2.8409310
   3.9569310  40.1709310   2.0429310  10.4749310  37.7579310  15.2179310
   9.6089310  37.5939310  14.8469310  11.0569310  37.1659310  14.7399310
  10.4389310  37.6609310  15.1089310  10.1809310  43.2079310   1.9239310
   9.7239310  42.9669310   2.7299310  11.1069310  43.0679310   2.1229310
  10.2409310  43.1589310   2.0529310   8.9249310  49.8279310  13.7619310
   8.5739310  49.7249310  14.6469310   9.0729310  50.7699310  13.6719310
   8.8989310  49.9349310  13.8639310  11.0619310  51.5949310  15.6409310
  11.2599310  51.1999310  16.4909310  10.3909310  52.2499310  15.8319310
  11.0009310  51.6279310  15.7739310   8.3059310  38.9249310   7.5119310
   9.0019310  38.5389310   6.9789310   7.6959310  38.2029310   7.6669310
   8.3169310  38.7829310   7.4629310   6.3799310  44.3739310  15.0539310
   5.8229310  43.9799310  14.3819310   5.8039310  44.9839310  15.5139310
   6.2349310  44.4019310  15.0269310  10.2939310  43.6349310  18.2479310
   9.4709310  43.9749310  17.8989310  10.1499310  43.5789310  19.1929310
  10.1709310  43.6709310  18.3239310   4.2069310  40.3609310   4.5869310
   3.3839310  40.6439310   4.9829310   4.8849310  40.7469310   5.1419310
   4.1889310  40.4459310   4.7089310   6.2259310  45.4619310   8.1349310
   6.7709310  45.9629310   8.7419310   5.5319310  46.0689310   7.8779310
   6.2069310  45.6029310   8.1799310   8.9299310  42.7079310   4.3279310
   8.8869310  43.3269310   5.0579310   8.5639310  41.8969310   4.6799310
   8.8779310  42.6839310   4.4669310   3.6799310  43.5719310   4.8069310
   3.0079310  42.8909310   4.8369310   3.7589310  43.7889310   3.8779310
   3.6039310  43.5129310   4.6919310   4.8659310  52.5509310  13.9249310
   4.3169310  52.4819310  13.1449310   5.2299310  51.6739310  14.0409310
   4.8429310  52.4299310  13.8399310   7.6949310  43.7179310  17.4359310
   7.0039310  43.0779310  17.6039310   7.4869310  44.0739310  16.5729310
   7.5799310  43.6809310  17.3469310   5.1189310  38.0199310   6.0819310
   4.8249310  38.7349310   5.5179310   4.8479310  38.2809310   6.9619310
   5.0469310  38.1449310   6.1219310   3.5729310  49.6759310  11.1639310
   3.5089310  49.1559310  11.9659310   4.1179310  50.4249310  11.4069310
   3.6339310  49.7049310  11.2979310   9.0719310  48.5719310   7.7829310
   8.1569310  48.5819310   7.4999310   9.1939310  47.7039310   8.1679310
   8.9699310  48.4619310   7.7959310   9.8839310  32.4729310  10.4319310
  10.0299310  32.8779310  11.2869310   8.9389310  32.5409310  10.2929310
   9.7819310  32.5329310  10.5239310   5.9719310  42.6079310   8.1459310
   6.4699310  42.4009310   7.3549310   6.1559310  43.5329310   8.3099310
   6.0589310  42.6999310   8.0659310  10.6599310  53.3799310  10.2139310
  10.5129310  52.4369310  10.2949310  11.3139310  53.5779310  10.8849310
  10.7249310  53.2839310  10.3099310  11.9929310  49.6579310   8.9999310
  11.1489310  50.0709310   9.1839310  11.8609310  48.7359310   9.2179310
  11.8679310  49.5929310   9.0509310   3.2929310  43.2039310   8.7689310
   2.8859310  43.9639310   8.3529310   4.1549310  43.1389310   8.3589310
   3.3509310  43.2929310   8.6629310   7.8299310  44.4429310   6.2509310
   8.5039310  44.8549310   6.7909310   7.0199310  44.8889310   6.4969310
   7.8129310  44.5529310   6.3509310   6.2869310  38.9439310  12.2929310
   5.8329310  39.3859310  11.5749310   5.7449310  39.1189310  13.0619310
   6.1599310  39.0229310  12.2989310  11.4519310  43.8719310  11.2369310
  11.0629310  43.3979310  11.9729310  10.9169310  44.6609310  11.1509310
  11.3339310  43.9119310  11.3199310   4.8259310  40.4199310  10.1029310
   5.4519310  40.8699310   9.5359310   4.6839310  39.5729310   9.6789310
   4.8879310  40.3689310   9.9759310   3.3609310  48.2969310  13.6019310
   3.7539310  49.1179310  13.8979310   2.4479310  48.3519310  13.8839310
   3.2949310  48.4089310  13.6759310   4.8499310  37.1649310   2.8589310
   4.0909310  37.4129310   2.3309310   5.4049310  37.9449310   2.8599310
   4.8239310  37.2969310   2.7919310   6.9719310  36.3489310   7.3719310
   6.3099310  36.7549310   6.8119310   7.6669310  36.0859310   6.7689310
   6.9759310  36.3679310   7.2229310   8.5849310  41.5809310  12.7509310
   8.3199310  40.9289310  13.4009310   8.8039310  41.0679310  11.9729310
   8.5789310  41.4319310  12.7349310   6.1439310  48.8259310   9.9869310
   6.2419310  49.0729310   9.0669310   5.2899310  49.1759310  10.2389310
   6.0469310  48.9019310   9.9019310   3.5339310  53.2399310   7.3259310
   3.3489310  52.4129310   6.8799310   3.2219310  53.9129310   6.7209310
   3.4699310  53.2199310   7.1909310   9.6379310  35.1099310  18.9509310
   9.0969310  34.5949310  19.5489310   9.1739310  35.9429310  18.8639310
   9.5099310  35.1509310  19.0169310   7.2319310  51.2519310  10.5259310
   6.6879310  51.8519310  10.0149310   6.8409310  50.3909310  10.3799310
   7.1129310  51.2189310  10.4419310  11.0069310  42.6609310  14.1489310
  10.1109310  42.3359310  14.0619310  10.9069310  43.5559310  14.4739310
  10.8789310  42.7339310  14.1799310   3.2029310  44.3479310   2.1869310
   3.9329310  44.9679310   2.1759310   2.4209310  44.8989310   2.1559310
   3.1959310  44.4979310   2.1809310   2.8349310  41.7289310  11.3029310
   2.3859310  40.9749310  11.6849310   3.5569310  41.3489310  10.8029310
   2.8699310  41.5839310  11.2879310   4.3699310  45.8529310  13.0149310
   4.0939310  46.6769310  13.4169310   5.3209310  45.8399310  13.1239310
   4.4569310  45.9569310  13.0799310   3.7259310  53.0759310  11.2639310
   4.5159310  53.6139310  11.2099310   3.1259310  53.4679310  10.6299310
   3.7499310  53.1949310  11.1759310   3.5089310  38.8099310  17.7049310
   3.0429310  39.4079310  18.2889310   4.1039310  39.3739310  17.2099310
   3.5249310  38.9579310  17.7159310   6.7159310  51.7059310   6.1159310
   6.3479310  52.2869310   6.7809310   7.6069310  52.0289310   5.9819310
   6.7829310  51.8219310   6.1839310   4.8209310  44.1429310  11.1009310
   4.5529310  44.7859310  11.7579310   4.0219310  43.9609310  10.6049310
   4.6839310  44.2019310  11.1209310   4.7979310  42.4769310  13.6629310
   4.6349310  42.7859310  12.7719310   3.9369310  42.2129310  13.9859310
   4.6669310  42.4829310  13.5909310   5.0199310  36.6979310  17.8009310
   5.0169310  36.4079310  16.8889310   4.3479310  37.3789310  17.8379310
   4.9329310  36.7479310  17.6889310   4.7299310  46.1399310  16.1989310
   3.9119310  45.9839310  15.7279310   4.7779310  47.0919310  16.2879310
   4.6319310  46.2419310  16.1499310   9.0799310  40.8359310  17.4299310
   9.7929310  40.2039310  17.5249310   9.5199310  41.6729310  17.2839310
   9.2269310  40.8619310  17.4229310  10.5529310  52.1129310  12.9989310
  10.8349310  52.0169310  13.9089310   9.7719310  52.6639310  13.0479310
  10.4889310  52.1709310  13.1219310  10.4739310  50.8909310   6.4339310
  10.5439310  50.2619310   7.1509310  10.5399310  50.3589310   5.6409310
  10.4909310  50.7429310   6.4239310   8.1049310  37.2959310  17.6249310
   8.1659310  36.9489310  16.7349310   7.1649310  37.3439310  17.7989310
   7.9919310  37.2579310  17.5329310   5.0839310  50.9249310   4.0739310
   4.3989310  50.8529310   4.7389310   5.8819310  51.1029310   4.5709310
   5.0979310  50.9379310   4.2229310   2.7949310  36.5489310   5.0559310
   2.5699310  37.3339310   5.5549310   3.6939310  36.7009310   4.7639310
   2.8819310  36.6689310   5.0829310   8.2219310  36.2689310   9.9259310
   9.0929310  35.8759310   9.9829310   8.1229310  36.4999310   9.0029310
   8.3209310  36.2479310   9.8149310   5.1299310  36.5359310  15.0599310
   4.8699310  35.7599310  14.5629310   6.0859310  36.5409310  15.0119310
   5.2189310  36.4369310  14.9899310   8.2469310  40.1339310   5.1739310
   8.0259310  39.8839310   6.0719310   9.0629310  39.6679310   4.9909310
   8.3229310  40.0419310   5.2659310   5.3499310  49.8889310  14.3819310
   5.1469310  49.5789310  15.2639310   5.8639310  49.1809310  13.9919310
   5.3899310  49.7579310  14.4449310  10.9379310  40.1579310   3.0099310
  10.1149310  39.6709310   2.9619310  10.6859310  41.0219310   3.3379310
  10.8009310  40.2059310   3.0459310   7.9949310  47.4909310  17.0289310
   7.3549310  46.9579310  17.5009310   7.9569310  47.1679310  16.1279310
   7.9079310  47.3809310  16.9739310  10.6619310  45.3279310  14.8459310
   9.7709310  45.5439310  15.1239310  10.9389310  46.0809310  14.3239310
  10.5829310  45.4519310  14.8149310   9.7299310  47.3499310   5.2779310
   9.7519310  47.4659310   6.2279310   9.9029310  48.2229310   4.9269310
   9.7549310  47.4769310   5.3549310   9.1049310  53.2899310   5.5849310
   8.8409310  53.2549310   4.6659310   9.7269310  52.5689310   5.6839310
   9.1509310  53.1929310   5.4799310   6.2789310  53.2859310   3.0959310
   5.7629310  52.6009310   3.5219310   5.7959310  54.0929310   3.2699310
   6.1509310  53.3009310   3.1729310   6.0159310  54.8289310  11.3969310
   6.7909310  54.6729310  10.8579310   5.9849310  55.7799310  11.5029310
   6.1109310  54.9309310  11.3419310   2.5859310  51.2409310   5.6259310
   2.3479310  50.4279310   6.0699310   1.7809310  51.5189310   5.1889310
   2.4529310  51.1729310   5.6269310   7.7789310  50.6609310  16.9329310
   8.0489310  49.7569310  17.0929310   6.8269310  50.6479310  17.0339310
   7.6919310  50.5439310  16.9669310   8.0889310  46.3669310  14.6299310
   7.4789310  45.6309310  14.6859310   7.6569310  46.9909310  14.0469310
   7.9559310  46.3519310  14.5629310   6.0509310  42.1469310   5.5949310
   6.6709310  42.5909310   5.0159310   5.2409310  42.6509310   5.5099310
   6.0269310  42.2689310   5.5099310   6.9439310  48.2259310  12.6489310
   6.7709310  48.1489310  11.7109310   7.7269310  48.7729310  12.7039310
   7.0219310  48.2859310  12.5359310   8.7899310  53.1769310  16.2589310
   9.1989310  53.3489310  17.1069310   8.5209310  52.2599310  16.3039310
   8.8079310  53.0819310  16.3729310   7.8039310  37.8389310  14.5269310
   7.5169310  38.6649310  14.9179310   7.5809310  37.9229310  13.5999310
   7.7379310  37.9559310  14.4589310  11.4569310  52.4689310   3.2569310
  12.0439310  52.2919310   2.5219310  10.8659310  53.1489310   2.9329310
  11.4559310  52.5329310   3.1209310  11.2969310  50.8239310  18.2519310
  10.5249310  50.8549310  18.8159310  11.9139310  51.4339310  18.6579310
  11.2769310  50.9059310  18.3769310  11.8189310  39.1749310   7.0129310
  12.4009310  39.6599310   6.4269310  11.2529310  39.8449310   7.3959310
  11.8209310  39.3229310   6.9869310   6.1979310  45.9509310  18.3209310
   5.3869310  45.9889310  17.8139310   6.5619310  45.0879310  18.1259310
   6.1409310  45.8459310  18.2309310   9.5119310  45.6809310   8.2419310
  10.3649310  45.3399310   7.9719310   9.5339310  45.6519310   9.1979310
   9.6239310  45.6329310   8.3289310   2.4419310  42.5919310  16.1469310
   1.6879310  42.2619310  15.6579310   2.2409310  42.3939310  17.0609310
   2.3199310  42.5239310  16.2009310   5.9919310  41.9149310  18.2159310
   5.2079310  41.8759310  18.7639310   6.6289310  41.3639310  18.6699310
   5.9729310  41.8399310  18.3439310  11.5879310  35.7069310   7.7499310
  10.9919310  35.3569310   8.4119310  12.3059310  35.0749310   7.7149310
  11.6039310  35.5819310   7.8299310   7.6579310  46.3519310   3.4569310
   8.0539310  46.6929310   4.2589310   8.1489310  46.7709310   2.7499310
   7.7709310  46.4489310   3.4689310   7.3869310  40.4379310  15.4189310
   8.0799310  40.6319310  16.0509310   6.7509310  41.1439310  15.5369310
   7.3939310  40.5529310  15.5149310   7.8519310  52.7079310  12.8939310
   7.3789310  53.5409310  12.8869310   7.3209310  52.1269310  12.3499310
   7.7229310  52.7399310  12.8239310   8.8599310  31.1979310  57.2579310
   7.9979310  31.5259310  57.0019310   8.7639310  30.2459310  57.2569310
   8.7369310  31.1179310  57.2249310   4.5169310  20.0739310  70.9449310
   4.6949310  19.1919310  71.2709310   4.8359310  20.6539310  71.6369310
   4.5809310  20.0349310  71.0759310   4.2049310  28.0699310  63.1909310
   3.7789310  27.4629310  62.5869310   3.5419310  28.7369310  63.3689310
   4.0659310  28.0779310  63.1369310   9.9569310  18.7019310  62.4439310
  10.0249310  17.7549310  62.3199310  10.8259310  18.9669310  62.7449310
  10.0769310  18.6149310  62.4669310  11.0759310  22.9929310  64.2849310
  10.2969310  23.1029310  64.8299310  11.4199310  23.8789310  64.1759310
  11.0199310  23.1199310  64.3409310   2.1719310  19.1209310  58.4329310
   1.9059310  18.6579310  59.2279310   2.1879310  18.4439310  57.7569310
   2.1399310  18.9749310  58.4489310   2.4069310  26.3089310  71.7169310
   2.2789310  25.4439310  72.1059310   2.8499310  26.1339310  70.8859310
   2.4469310  26.1759310  71.6599310   5.2829310  27.2609310  58.7359310
   6.0529310  27.2819310  59.3029310   5.6019310  26.8939310  57.9119310
   5.4219310  27.2169310  58.7029310  11.0189310  26.8979310  60.4659310
  10.6529310  27.5389310  61.0759310  10.2539310  26.4759310  60.0739310
  10.8739310  26.9259310  60.4939310   9.0009310  28.4979310  57.4829310
   9.0429310  28.3639310  56.5359310   9.8869310  28.7649310  57.7259310
   9.1199310  28.5149310  57.3929310   9.3439310  18.9279310  59.5709310
   9.4759310  18.7839310  60.5079310   8.4759310  19.3269310  59.5109310
   9.2499310  18.9599310  59.6839310   5.9939310  30.6649310  64.0719310
   6.1699310  31.5149310  63.6689310   5.2349310  30.3279310  63.5979310
   5.9199310  30.7309310  63.9599310   5.7839310  33.9899310  65.3239310
   6.3699310  34.7269310  65.1489310   5.0019310  34.1759310  64.8049310
   5.7589310  34.1079310  65.2349310   4.5729310  22.1299310  72.8609310
   5.1589310  22.4429310  73.5499310   3.8469310  22.7549310  72.8609310
   4.5549310  22.2499310  72.9489310   4.4649310  19.0249310  65.5219310
   3.5129310  18.9619310  65.5929310   4.7929310  18.2969310  66.0499310
   4.3849310  18.9239310  65.5989310   9.5939310  27.0329310  67.6439310
  10.0339310  27.5399310  68.3269310   8.9219310  26.5359310  68.1099310
   9.5649310  27.0339310  67.7909310  10.8089310  28.8009310  69.8719310
  10.0949310  29.4059310  69.6729310  11.5249310  29.3639310  70.1689310
  10.8099310  28.9499310  69.8849310   4.3209310  29.8619310  58.8099310
   4.6249310  28.9689310  58.9659310   4.8479310  30.4019310  59.3989310
   4.4269310  29.8169310  58.9049310   6.9439310  20.3499310  59.3859310
   7.0479310  20.6939310  60.2729310   6.8139310  21.1259310  58.8409310
   6.9409310  20.4929310  59.4299310   9.5859310  21.1979310  66.7129310
  10.4979310  21.2089310  67.0059310   9.5859310  20.6129310  65.9549310
   9.7029310  21.1239310  66.6539310   7.4309310  25.5349310  68.5639310
   6.5559310  25.2779310  68.2739310   7.7829310  24.7519310  68.9879310
   7.3639310  25.4019310  68.5809310   1.7759310  22.0349310  65.0269310
   1.8619310  21.2509310  65.5699310   2.2159310  22.7219310  65.5269310
   1.8429310  22.0229310  65.1599310  10.4379310  19.6529310  74.3669310
   9.5389310  19.3249310  74.3619310  10.7629310  19.4759310  73.4849310
  10.3639310  19.5879310  74.2539310  10.4539310  30.7749310  60.3629310
  10.5749310  31.6499310  59.9949310  10.6629310  30.1809310  59.6419310
  10.4959310  30.8109310  60.2229310   8.8719310  16.1739310  59.2409310
   8.9999310  17.0889310  58.9889310   7.9229310  16.0789310  59.3259310
   8.7669310  16.2789310  59.2199310   4.9019310  30.0589310  73.4969310
   5.4839310  29.8949310  74.2379310   4.3089310  30.7449310  73.8049310
   4.8999310  30.1259310  73.6309310  12.0469310  17.5119310  57.2419310
  11.8709310  18.3529310  56.8209310  11.2379310  17.0129310  57.1279310
  11.9209310  17.5559310  57.1739310  14.6159310  23.4399310  64.6199310
  14.6299310  23.1269310  65.5249310  14.5669310  24.3929310  64.6969310
  14.6119310  23.5219310  64.7459310   4.0089310  21.3759310  58.5029310
   3.3829310  20.6519310  58.5269310   4.2269310  21.5349310  59.4209310
   3.9569310  21.3039310  58.6229310  10.4749310  18.8909310  71.7979310
   9.6089310  18.7269310  71.4269310  11.0569310  18.2989310  71.3199310
  10.4389310  18.7939310  71.6889310  10.1809310  24.3409310  58.5039310
   9.7239310  24.0999310  59.3099310  11.1069310  24.2009310  58.7029310
  10.2409310  24.2919310  58.6329310   8.9249310  30.9609310  70.3419310
   8.5739310  30.8579310  71.2269310   9.0729310  31.9029310  70.2519310
   8.8989310  31.0679310  70.4439310  11.0619310  32.7279310  72.2209310
  11.2599310  32.3329310  73.0709310  10.3909310  33.3829310  72.4119310
  11.0009310  32.7609310  72.3539310   8.3059310  20.0579310  64.0919310
   9.0019310  19.6719310  63.5589310   7.6959310  19.3359310  64.2469310
   8.3169310  19.9159310  64.0429310   6.3799310  25.5069310  71.6339310
   5.8229310  25.1129310  70.9619310   5.8039310  26.1169310  72.0939310
   6.2349310  25.5349310  71.6069310   4.2069310  21.4939310  61.1669310
   3.3839310  21.7769310  61.5629310   4.8849310  21.8799310  61.7219310
   4.1889310  21.5789310  61.2889310   6.2259310  26.5949310  64.7149310
   6.7709310  27.0959310  65.3219310   5.5319310  27.2019310  64.4579310
   6.2069310  26.7359310  64.7599310   8.9299310  23.8409310  60.9079310
   8.8869310  24.4599310  61.6379310   8.5639310  23.0299310  61.2599310
   8.8779310  23.8169310  61.0469310   3.6799310  24.7049310  61.3869310
   3.0079310  24.0239310  61.4169310   3.7589310  24.9219310  60.4579310
   3.6039310  24.6459310  61.2719310   4.8659310  33.6839310  70.5049310
   4.3169310  33.6149310  69.7249310   5.2299310  32.8069310  70.6209310
   4.8429310  33.5629310  70.4199310   7.6949310  24.8509310  74.0159310
   7.0039310  24.2109310  74.1839310   7.4869310  25.2069310  73.1529310
   7.5799310  24.8139310  73.9269310   5.1189310  19.1529310  62.6619310
   4.8249310  19.8679310  62.0979310   4.8479310  19.4139310  63.5419310
   5.0469310  19.2779310  62.7019310   3.5729310  30.8089310  67.7439310
   3.5089310  30.2889310  68.5459310   4.1179310  31.5579310  67.9869310
   3.6339310  30.8379310  67.8779310   9.0719310  29.7049310  64.3629310
   8.1569310  29.7149310  64.0799310   9.1939310  28.8369310  64.7479310
   8.9699310  29.5949310  64.3759310   8.0319310  22.5259310  57.6129310
   8.5099310  22.1729310  56.8639310   8.5339310  23.2979310  57.8759310
   8.1569310  22.5799310  57.5509310   9.8839310  13.6059310  67.0119310
  10.0299310  14.0109310  67.8669310   8.9389310  13.6739310  66.8729310
   9.7819310  13.6659310  67.1039310   5.9719310  23.7409310  64.7259310
   6.4699310  23.5339310  63.9349310   6.1559310  24.6659310  64.8899310
   6.0589310  23.8329310  64.6459310  10.6599310  34.5129310  66.7939310
  10.5129310  33.5699310  66.8749310  11.3139310  34.7109310  67.4649310
  10.7249310  34.4169310  66.8899310  11.9929310  30.7909310  65.5799310
  11.1489310  31.2039310  65.7639310  11.8609310  29.8689310  65.7979310
  11.8679310  30.7259310  65.6309310   3.2929310  24.3369310  65.3489310
   2.8859310  25.0969310  64.9329310   4.1549310  24.2719310  64.9389310
   3.3509310  24.4259310  65.2429310   7.8299310  25.5759310  62.8309310
   8.5039310  25.9879310  63.3709310   7.0199310  26.0219310  63.0769310
   7.8129310  25.6859310  62.9309310   6.2869310  20.0769310  68.8729310
   5.8329310  20.5189310  68.1549310   5.7449310  20.2519310  69.6419310
   6.1599310  20.1559310  68.8789310  11.4519310  25.0049310  67.8169310
  11.0629310  24.5309310  68.5529310  10.9169310  25.7939310  67.7309310
  11.3339310  25.0449310  67.8999310   4.8259310  21.5529310  66.6829310
   5.4519310  22.0029310  66.1159310   4.6839310  20.7059310  66.2589310
   4.8879310  21.5019310  66.5559310   3.3609310  29.4299310  70.1819310
   3.7539310  30.2509310  70.4779310   2.4479310  29.4849310  70.4639310
   3.2949310  29.5419310  70.2559310   4.8499310  18.2979310  59.4389310
   4.0909310  18.5459310  58.9109310   5.4049310  19.0779310  59.4399310
   4.8239310  18.4299310  59.3719310   6.9719310  17.4819310  63.9519310
   6.3099310  17.8879310  63.3919310   7.6669310  17.2189310  63.3489310
   6.9759310  17.5009310  63.8029310   8.5849310  22.7139310  69.3309310
   8.3199310  22.0619310  69.9809310   8.8039310  22.2009310  68.5529310
   8.5789310  22.5649310  69.3149310   1.7809310  29.7139310  57.8389310
   2.6249310  29.6759310  58.2899310   2.0039310  29.9189310  56.9309310
   1.9179310  29.7349310  57.7809310   6.1439310  29.9589310  66.5669310
   6.2419310  30.2059310  65.6469310   5.2899310  30.3089310  66.8189310
   6.0469310  30.0349310  66.4819310   3.5339310  34.3729310  63.9059310
   3.3489310  33.5459310  63.4599310   3.2219310  35.0459310  63.3009310
   3.4699310  34.3529310  63.7709310   5.1219310  33.6079310  56.9959310
   5.2799310  34.4469310  56.5629310   5.3839310  33.7549310  57.9049310
   5.1759310  33.7339310  57.0569310   7.2319310  32.3849310  67.1059310
   6.6879310  32.9849310  66.5949310   6.8409310  31.5239310  66.9599310
   7.1129310  32.3519310  67.0219310  11.0069310  23.7939310  70.7289310
  10.1109310  23.4689310  70.6419310  10.9069310  24.6889310  71.0539310
  10.8789310  23.8669310  70.7599310   3.2029310  25.4809310  58.7669310
   3.9329310  26.1009310  58.7559310   2.4209310  26.0319310  58.7359310
   3.1959310  25.6309310  58.7609310   2.8349310  22.8619310  67.8829310
   2.3859310  22.1079310  68.2649310   3.5569310  22.4819310  67.3829310
   2.8699310  22.7169310  67.8679310   4.3699310  26.9859310  69.5949310
   4.0939310  27.8099310  69.9969310   5.3209310  26.9729310  69.7039310
   4.4569310  27.0899310  69.6599310   3.7259310  34.2089310  67.8439310
   4.5159310  34.7469310  67.7899310   3.1259310  34.6009310  67.2099310
   3.7499310  34.3279310  67.7559310   6.7159310  32.8389310  62.6959310
   6.3479310  33.4199310  63.3609310   7.6069310  33.1619310  62.5619310
   6.7829310  32.9549310  62.7639310   4.8209310  25.2759310  67.6809310
   4.5529310  25.9189310  68.3379310   4.0219310  25.0939310  67.1849310
   4.6839310  25.3349310  67.7009310   4.7979310  23.6099310  70.2429310
   4.6349310  23.9189310  69.3519310   3.9369310  23.3459310  70.5659310
   4.6669310  23.6159310  70.1709310   5.0199310  17.8309310  74.3809310
   5.0169310  17.5409310  73.4689310   4.3479310  18.5119310  74.4179310
   4.9329310  17.8809310  74.2689310   4.7299310  27.2729310  72.7789310
   3.9119310  27.1169310  72.3079310   4.7779310  28.2249310  72.8679310
   4.6319310  27.3749310  72.7299310   9.0799310  21.9689310  74.0099310
   9.7929310  21.3369310  74.1049310   9.5199310  22.8059310  73.8639310
   9.2269310  21.9949310  74.0029310  10.5529310  33.2459310  69.5789310
  10.8349310  33.1499310  70.4889310   9.7719310  33.7969310  69.6279310
  10.4889310  33.3039310  69.7019310  10.4739310  32.0239310  63.0139310
  10.5439310  31.3949310  63.7309310  10.5399310  31.4919310  62.2209310
  10.4909310  31.8759310  63.0039310   3.1219310  23.1789310  56.7839310
   3.1029310  23.8289310  57.4859310   3.4769310  22.3909310  57.1959310
   3.1649310  23.1619310  56.9259310   8.1049310  18.4289310  74.2049310
   8.1659310  18.0819310  73.3149310   7.1649310  18.4769310  74.3789310
   7.9919310  18.3909310  74.1129310   5.0839310  32.0579310  60.6539310
   4.3989310  31.9859310  61.3189310   5.8819310  32.2359310  61.1509310
   5.0979310  32.0709310  60.8029310   2.7949310  17.6819310  61.6359310
   2.5699310  18.4669310  62.1349310   3.6939310  17.8339310  61.3439310
   2.8819310  17.8019310  61.6629310   8.2219310  17.4019310  66.5059310
   9.0929310  17.0089310  66.5629310   8.1229310  17.6329310  65.5829310
   8.3209310  17.3809310  66.3949310   5.1299310  17.6689310  71.6399310
   4.8699310  16.8929310  71.1429310   6.0859310  17.6739310  71.5919310
   5.2189310  17.5699310  71.5699310   8.2469310  21.2669310  61.7539310
   8.0259310  21.0169310  62.6519310   9.0629310  20.8009310  61.5709310
   8.3229310  21.1749310  61.8459310   6.0929310  31.0299310  56.9009310
   5.6929310  31.8979310  56.9509310   5.6169310  30.5089310  57.5479310
   5.9809310  31.0749310  56.9899310   5.3499310  31.0219310  70.9619310
   5.1469310  30.7119310  71.8439310   5.8639310  30.3139310  70.5719310
   5.3899310  30.8909310  71.0249310  10.9379310  21.2909310  59.5899310
  10.1149310  20.8039310  59.5419310  10.6859310  22.1549310  59.9179310
  10.8009310  21.3389310  59.6259310   7.9949310  28.6239310  73.6089310
   7.3549310  28.0909310  74.0809310   7.9569310  28.3009310  72.7079310
   7.9079310  28.5139310  73.5539310  10.6619310  26.4609310  71.4259310
   9.7709310  26.6769310  71.7039310  10.9389310  27.2139310  70.9039310
  10.5829310  26.5849310  71.3949310   9.7299310  28.4829310  61.8579310
   9.7519310  28.5989310  62.8079310   9.9029310  29.3559310  61.5069310
   9.7549310  28.6099310  61.9349310   9.1049310  34.4229310  62.1649310
   8.8409310  34.3879310  61.2459310   9.7269310  33.7019310  62.2639310
   9.1509310  34.3259310  62.0599310   6.2789310  34.4189310  59.6759310
   5.7629310  33.7339310  60.1019310   5.7959310  35.2259310  59.8499310
   6.1509310  34.4339310  59.7529310   6.0159310  35.9619310  67.9769310
   6.7909310  35.8059310  67.4379310   5.9849310  36.9129310  68.0829310
   6.1109310  36.0639310  67.9219310   2.5859310  32.3739310  62.2059310
   2.3479310  31.5609310  62.6499310   1.7809310  32.6519310  61.7689310
   2.4529310  32.3059310  62.2069310   7.7789310  31.7939310  73.5129310
   8.0489310  30.8899310  73.6729310   6.8269310  31.7809310  73.6139310
   7.6919310  31.6769310  73.5469310   8.0889310  27.4999310  71.2099310
   7.4789310  26.7639310  71.2659310   7.6569310  28.1239310  70.6269310
   7.9559310  27.4849310  71.1429310   6.0509310  23.2799310  62.1749310
   6.6709310  23.7239310  61.5959310   5.2409310  23.7839310  62.0899310
   6.0269310  23.4019310  62.0899310   6.9439310  29.3589310  69.2289310
   6.7709310  29.2819310  68.2909310   7.7269310  29.9059310  69.2839310
   7.0219310  29.4189310  69.1159310   8.7899310  34.3099310  72.8389310
   9.1989310  34.4819310  73.6869310   8.5209310  33.3929310  72.8839310
   8.8079310  34.2149310  72.9529310   7.8039310  18.9719310  71.1069310
   7.5169310  19.7979310  71.4979310   7.5809310  19.0559310  70.1799310
   7.7379310  19.0889310  71.0389310  11.4569310  33.6019310  59.8369310
  12.0439310  33.4249310  59.1019310  10.8659310  34.2819310  59.5129310
  11.4559310  33.6659310  59.7009310  11.8189310  20.3079310  63.5929310
  12.4009310  20.7929310  63.0069310  11.2529310  20.9779310  63.9759310
  11.8209310  20.4559310  63.5669310   9.5119310  26.8139310  64.8219310
  10.3649310  26.4729310  64.5519310   9.5339310  26.7849310  65.7779310
   9.6239310  26.7659310  64.9089310   2.4419310  23.7249310  72.7269310
   1.6879310  23.3949310  72.2379310   2.2409310  23.5269310  73.6409310
   2.3199310  23.6569310  72.7809310  11.5879310  16.8399310  64.3299310
  10.9919310  16.4899310  64.9919310  12.3059310  16.2079310  64.2949310
  11.6039310  16.7149310  64.4099310   7.6579310  27.4849310  60.0369310
   8.0539310  27.8259310  60.8389310   8.1489310  27.9039310  59.3299310
   7.7709310  27.5819310  60.0489310   7.3869310  21.5709310  71.9989310
   8.0799310  21.7649310  72.6309310   6.7509310  22.2769310  72.1169310
   7.3939310  21.6859310  72.0949310   7.8519310  33.8409310  69.4739310
   7.3789310  34.6739310  69.4669310   7.3209310  33.2599310  68.9299310
   7.7229310  33.8729310  69.4039310   2.6319310  16.6849310  57.0949310
   3.5239310  16.4559310  56.8309310   2.1099310  16.5639310  56.3019310
   2.6799310  16.6409310  56.9599310   8.8599310  31.1979310  38.3979310
   7.9979310  31.5259310  38.1419310   8.7639310  30.2459310  38.3969310
   8.7369310  31.1179310  38.3649310   4.5169310  20.0739310  52.0849310
   4.6949310  19.1919310  52.4109310   4.8359310  20.6539310  52.7769310
   4.5809310  20.0349310  52.2159310   4.2049310  28.0699310  44.3309310
   3.7789310  27.4629310  43.7269310   3.5419310  28.7369310  44.5089310
   4.0659310  28.0779310  44.2769310   9.9569310  18.7019310  43.5839310
  10.0249310  17.7549310  43.4599310  10.8259310  18.9669310  43.8849310
  10.0769310  18.6149310  43.6069310   2.1719310  19.1209310  39.5729310
   1.9059310  18.6579310  40.3679310   2.1879310  18.4439310  38.8969310
   2.1399310  18.9749310  39.5889310   2.4069310  26.3089310  52.8569310
   2.2789310  25.4439310  53.2459310   2.8499310  26.1339310  52.0259310
   2.4469310  26.1759310  52.7999310   5.2829310  27.2609310  39.8759310
   6.0529310  27.2819310  40.4429310   5.6019310  26.8939310  39.0519310
   5.4219310  27.2169310  39.8429310  11.0189310  26.8979310  41.6059310
  10.6529310  27.5389310  42.2159310  10.2539310  26.4759310  41.2139310
  10.8739310  26.9259310  41.6339310   9.0009310  28.4979310  38.6229310
   9.0429310  28.3639310  37.6759310   9.8869310  28.7649310  38.8659310
   9.1199310  28.5149310  38.5329310   9.3439310  18.9279310  40.7109310
   9.4759310  18.7839310  41.6479310   8.4759310  19.3269310  40.6509310
   9.2499310  18.9599310  40.8239310   5.9939310  30.6649310  45.2119310
   6.1699310  31.5149310  44.8089310   5.2349310  30.3279310  44.7379310
   5.9199310  30.7309310  45.0999310   5.7839310  33.9899310  46.4639310
   6.3699310  34.7269310  46.2889310   5.0019310  34.1759310  45.9449310
   5.7589310  34.1079310  46.3749310   4.5729310  22.1299310  54.0009310
   5.1589310  22.4429310  54.6899310   3.8469310  22.7549310  54.0009310
   4.5549310  22.2499310  54.0889310   4.4649310  19.0249310  46.6619310
   3.5129310  18.9619310  46.7329310   4.7929310  18.2969310  47.1899310
   4.3849310  18.9239310  46.7389310   9.5939310  27.0329310  48.7839310
  10.0339310  27.5399310  49.4669310   8.9219310  26.5359310  49.2499310
   9.5649310  27.0339310  48.9309310  10.8089310  28.8009310  51.0119310
  10.0949310  29.4059310  50.8129310  11.5249310  29.3639310  51.3089310
  10.8099310  28.9499310  51.0249310   4.3209310  29.8619310  39.9499310
   4.6249310  28.9689310  40.1059310   4.8479310  30.4019310  40.5389310
   4.4269310  29.8169310  40.0449310   6.9439310  20.3499310  40.5259310
   7.0479310  20.6939310  41.4129310   6.8139310  21.1259310  39.9809310
   6.9409310  20.4929310  40.5699310   9.5859310  21.1979310  47.8529310
  10.4979310  21.2089310  48.1459310   9.5859310  20.6129310  47.0949310
   9.7029310  21.1239310  47.7939310   7.4309310  25.5349310  49.7039310
   6.5559310  25.2779310  49.4139310   7.7829310  24.7519310  50.1279310
   7.3639310  25.4019310  49.7209310   1.7759310  22.0349310  46.1669310
   1.8619310  21.2509310  46.7099310   2.2159310  22.7219310  46.6669310
   1.8429310  22.0229310  46.2999310  10.4379310  19.6529310  55.5069310
   9.5389310  19.3249310  55.5019310  10.7629310  19.4759310  54.6249310
  10.3639310  19.5879310  55.3939310  10.4539310  30.7749310  41.5029310
  10.5749310  31.6499310  41.1349310  10.6629310  30.1809310  40.7819310
  10.4959310  30.8109310  41.3629310   8.8719310  16.1739310  40.3809310
   8.9999310  17.0889310  40.1289310   7.9229310  16.0789310  40.4659310
   8.7669310  16.2789310  40.3599310   4.9019310  30.0589310  54.6369310
   5.4839310  29.8949310  55.3779310   4.3089310  30.7449310  54.9449310
   4.8999310  30.1259310  54.7709310  12.0469310  17.5119310  38.3819310
  11.8709310  18.3529310  37.9609310  11.2379310  17.0129310  38.2679310
  11.9209310  17.5559310  38.3139310   4.0089310  21.3759310  39.6429310
   3.3829310  20.6519310  39.6669310   4.2269310  21.5349310  40.5609310
   3.9569310  21.3039310  39.7629310  10.4749310  18.8909310  52.9379310
   9.6089310  18.7269310  52.5669310  11.0569310  18.2989310  52.4599310
  10.4389310  18.7939310  52.8289310  10.1809310  24.3409310  39.6439310
   9.7239310  24.0999310  40.4499310  11.1069310  24.2009310  39.8429310
  10.2409310  24.2919310  39.7729310   8.9249310  30.9609310  51.4819310
   8.5739310  30.8579310  52.3669310   9.0729310  31.9029310  51.3919310
   8.8989310  31.0679310  51.5839310  11.0619310  32.7279310  53.3609310
  11.2599310  32.3329310  54.2109310  10.3909310  33.3829310  53.5519310
  11.0009310  32.7609310  53.4939310   8.3059310  20.0579310  45.2319310
   9.0019310  19.6719310  44.6989310   7.6959310  19.3359310  45.3869310
   8.3169310  19.9159310  45.1829310   6.3799310  25.5069310  52.7739310
   5.8229310  25.1129310  52.1019310   5.8039310  26.1169310  53.2339310
   6.2349310  25.5349310  52.7469310  10.2939310  24.7679310  55.9679310
   9.4709310  25.1079310  55.6189310  10.1499310  24.7119310  56.9129310
  10.1709310  24.8039310  56.0439310   4.2069310  21.4939310  42.3069310
   3.3839310  21.7769310  42.7029310   4.8849310  21.8799310  42.8619310
   4.1889310  21.5789310  42.4289310   6.2259310  26.5949310  45.8549310
   6.7709310  27.0959310  46.4619310   5.5319310  27.2019310  45.5979310
   6.2069310  26.7359310  45.8999310   8.9299310  23.8409310  42.0479310
   8.8869310  24.4599310  42.7779310   8.5639310  23.0299310  42.3999310
   8.8779310  23.8169310  42.1869310   3.6799310  24.7049310  42.5269310
   3.0079310  24.0239310  42.5569310   3.7589310  24.9219310  41.5979310
   3.6039310  24.6459310  42.4119310   4.8659310  33.6839310  51.6449310
   4.3169310  33.6149310  50.8649310   5.2299310  32.8069310  51.7609310
   4.8429310  33.5629310  51.5599310   7.6949310  24.8509310  55.1559310
   7.0039310  24.2109310  55.3239310   7.4869310  25.2069310  54.2929310
   7.5799310  24.8139310  55.0669310   5.1189310  19.1529310  43.8019310
   4.8249310  19.8679310  43.2379310   4.8479310  19.4139310  44.6819310
   5.0469310  19.2779310  43.8419310   3.5729310  30.8089310  48.8839310
   3.5089310  30.2889310  49.6859310   4.1179310  31.5579310  49.1269310
   3.6339310  30.8379310  49.0179310   9.0719310  29.7049310  45.5029310
   8.1569310  29.7149310  45.2199310   9.1939310  28.8369310  45.8879310
   8.9699310  29.5949310  45.5159310   8.0319310  22.5259310  38.7529310
   8.5099310  22.1729310  38.0039310   8.5339310  23.2979310  39.0159310
   8.1569310  22.5799310  38.6909310   9.8839310  13.6059310  48.1519310
  10.0299310  14.0109310  49.0069310   8.9389310  13.6739310  48.0129310
   9.7819310  13.6659310  48.2439310   5.9719310  23.7409310  45.8659310
   6.4699310  23.5339310  45.0749310   6.1559310  24.6659310  46.0299310
   6.0589310  23.8329310  45.7859310  10.6599310  34.5129310  47.9339310
  10.5129310  33.5699310  48.0149310  11.3139310  34.7109310  48.6049310
  10.7249310  34.4169310  48.0299310  11.9929310  30.7909310  46.7199310
  11.1489310  31.2039310  46.9039310  11.8609310  29.8689310  46.9379310
  11.8679310  30.7259310  46.7709310   3.2929310  24.3369310  46.4889310
   2.8859310  25.0969310  46.0729310   4.1549310  24.2719310  46.0789310
   3.3509310  24.4259310  46.3829310   7.8299310  25.5759310  43.9709310
   8.5039310  25.9879310  44.5109310   7.0199310  26.0219310  44.2169310
   7.8129310  25.6859310  44.0709310   6.2869310  20.0769310  50.0129310
   5.8329310  20.5189310  49.2949310   5.7449310  20.2519310  50.7819310
   6.1599310  20.1559310  50.0189310   4.8259310  21.5529310  47.8229310
   5.4519310  22.0029310  47.2559310   4.6839310  20.7059310  47.3989310
   4.8879310  21.5019310  47.6959310   3.3609310  29.4299310  51.3219310
   3.7539310  30.2509310  51.6179310   2.4479310  29.4849310  51.6039310
   3.2949310  29.5419310  51.3959310   4.8499310  18.2979310  40.5789310
   4.0909310  18.5459310  40.0509310   5.4049310  19.0779310  40.5799310
   4.8239310  18.4299310  40.5119310   6.9719310  17.4819310  45.0919310
   6.3099310  17.8879310  44.5319310   7.6669310  17.2189310  44.4889310
   6.9759310  17.5009310  44.9429310   8.5849310  22.7139310  50.4709310
   8.3199310  22.0619310  51.1209310   8.8039310  22.2009310  49.6929310
   8.5789310  22.5649310  50.4549310   1.7809310  29.7139310  38.9789310
   2.6249310  29.6759310  39.4299310   2.0039310  29.9189310  38.0709310
   1.9179310  29.7349310  38.9209310   6.1439310  29.9589310  47.7069310
   6.2419310  30.2059310  46.7869310   5.2899310  30.3089310  47.9589310
   6.0469310  30.0349310  47.6219310   3.5339310  34.3729310  45.0459310
   3.3489310  33.5459310  44.5999310   3.2219310  35.0459310  44.4409310
   3.4699310  34.3529310  44.9109310   9.6379310  16.2429310  56.6709310
   9.0969310  15.7279310  57.2689310   9.1739310  17.0759310  56.5839310
   9.5099310  16.2839310  56.7369310   5.1219310  33.6079310  38.1359310
   5.2799310  34.4469310  37.7029310   5.3839310  33.7549310  39.0449310
   5.1759310  33.7339310  38.1969310   7.2319310  32.3849310  48.2459310
   6.6879310  32.9849310  47.7349310   6.8409310  31.5239310  48.0999310
   7.1129310  32.3519310  48.1619310  11.0069310  23.7939310  51.8689310
  10.1109310  23.4689310  51.7819310  10.9069310  24.6889310  52.1939310
  10.8789310  23.8669310  51.8999310   3.2029310  25.4809310  39.9069310
   3.9329310  26.1009310  39.8959310   2.4209310  26.0319310  39.8759310
   3.1959310  25.6309310  39.9009310   2.8349310  22.8619310  49.0229310
   2.3859310  22.1079310  49.4049310   3.5569310  22.4819310  48.5229310
   2.8699310  22.7169310  49.0079310   4.3699310  26.9859310  50.7349310
   4.0939310  27.8099310  51.1369310   5.3209310  26.9729310  50.8439310
   4.4569310  27.0899310  50.7999310   3.7259310  34.2089310  48.9839310
   4.5159310  34.7469310  48.9299310   3.1259310  34.6009310  48.3499310
   3.7499310  34.3279310  48.8959310   3.5089310  19.9429310  55.4249310
   3.0429310  20.5409310  56.0089310   4.1039310  20.5069310  54.9299310
   3.5249310  20.0909310  55.4359310   6.7159310  32.8389310  43.8359310
   6.3479310  33.4199310  44.5009310   7.6069310  33.1619310  43.7019310
   6.7829310  32.9549310  43.9039310   4.8209310  25.2759310  48.8209310
   4.5529310  25.9189310  49.4779310   4.0219310  25.0939310  48.3249310
   4.6839310  25.3349310  48.8409310   4.7979310  23.6099310  51.3829310
   4.6349310  23.9189310  50.4919310   3.9369310  23.3459310  51.7059310
   4.6669310  23.6159310  51.3109310   5.0199310  17.8309310  55.5209310
   5.0169310  17.5409310  54.6089310   4.3479310  18.5119310  55.5579310
   4.9329310  17.8809310  55.4089310   4.7299310  27.2729310  53.9189310
   3.9119310  27.1169310  53.4479310   4.7779310  28.2249310  54.0079310
   4.6319310  27.3749310  53.8699310   9.0799310  21.9689310  55.1499310
   9.7929310  21.3369310  55.2449310   9.5199310  22.8059310  55.0039310
   9.2269310  21.9949310  55.1429310  10.5529310  33.2459310  50.7189310
  10.8349310  33.1499310  51.6289310   9.7719310  33.7969310  50.7679310
  10.4889310  33.3039310  50.8419310  10.4739310  32.0239310  44.1539310
  10.5439310  31.3949310  44.8709310  10.5399310  31.4919310  43.3609310
  10.4909310  31.8759310  44.1439310   3.1219310  23.1789310  37.9239310
   3.1029310  23.8289310  38.6259310   3.4769310  22.3909310  38.3359310
   3.1649310  23.1619310  38.0659310   8.1049310  18.4289310  55.3449310
   8.1659310  18.0819310  54.4549310   7.1649310  18.4769310  55.5189310
   7.9919310  18.3909310  55.2529310   5.0839310  32.0579310  41.7939310
   4.3989310  31.9859310  42.4589310   5.8819310  32.2359310  42.2909310
   5.0979310  32.0709310  41.9429310   2.7949310  17.6819310  42.7759310
   2.5699310  18.4669310  43.2749310   3.6939310  17.8339310  42.4839310
   2.8819310  17.8019310  42.8029310   8.2219310  17.4019310  47.6459310
   9.0929310  17.0089310  47.7029310   8.1229310  17.6329310  46.7229310
   8.3209310  17.3809310  47.5349310   5.1299310  17.6689310  52.7799310
   4.8699310  16.8929310  52.2829310   6.0859310  17.6739310  52.7319310
   5.2189310  17.5699310  52.7099310   8.2469310  21.2669310  42.8939310
   8.0259310  21.0169310  43.7919310   9.0629310  20.8009310  42.7109310
   8.3229310  21.1749310  42.9859310   6.0929310  31.0299310  38.0409310
   5.6929310  31.8979310  38.0909310   5.6169310  30.5089310  38.6879310
   5.9809310  31.0749310  38.1299310   5.3499310  31.0219310  52.1019310
   5.1469310  30.7119310  52.9839310   5.8639310  30.3139310  51.7119310
   5.3899310  30.8909310  52.1649310  10.9379310  21.2909310  40.7299310
  10.1149310  20.8039310  40.6819310  10.6859310  22.1549310  41.0579310
  10.8009310  21.3389310  40.7659310   7.9949310  28.6239310  54.7489310
   7.3549310  28.0909310  55.2209310   7.9569310  28.3009310  53.8479310
   7.9079310  28.5139310  54.6939310  10.6619310  26.4609310  52.5659310
   9.7709310  26.6769310  52.8439310  10.9389310  27.2139310  52.0439310
  10.5829310  26.5849310  52.5349310   9.7299310  28.4829310  42.9979310
   9.7519310  28.5989310  43.9479310   9.9029310  29.3559310  42.6469310
   9.7549310  28.6099310  43.0749310   9.1049310  34.4229310  43.3049310
   8.8409310  34.3879310  42.3859310   9.7269310  33.7019310  43.4039310
   9.1509310  34.3259310  43.1999310   6.2789310  34.4189310  40.8159310
   5.7629310  33.7339310  41.2419310   5.7959310  35.2259310  40.9899310
   6.1509310  34.4339310  40.8929310   6.0159310  35.9619310  49.1169310
   6.7909310  35.8059310  48.5779310   5.9849310  36.9129310  49.2229310
   6.1109310  36.0639310  49.0619310   2.5859310  32.3739310  43.3459310
   2.3479310  31.5609310  43.7899310   1.7809310  32.6519310  42.9089310
   2.4529310  32.3059310  43.3469310   7.7789310  31.7939310  54.6529310
   8.0489310  30.8899310  54.8129310   6.8269310  31.7809310  54.7539310
   7.6919310  31.6769310  54.6869310   8.0889310  27.4999310  52.3499310
   7.4789310  26.7639310  52.4059310   7.6569310  28.1239310  51.7669310
   7.9559310  27.4849310  52.2829310   6.0509310  23.2799310  43.3149310
   6.6709310  23.7239310  42.7359310   5.2409310  23.7839310  43.2299310
   6.0269310  23.4019310  43.2299310   6.9439310  29.3589310  50.3689310
   6.7709310  29.2819310  49.4309310   7.7269310  29.9059310  50.4239310
   7.0219310  29.4189310  50.2559310   8.7899310  34.3099310  53.9789310
   9.1989310  34.4819310  54.8269310   8.5209310  33.3929310  54.0239310
   8.8079310  34.2149310  54.0929310   7.8039310  18.9719310  52.2469310
   7.5169310  19.7979310  52.6379310   7.5809310  19.0559310  51.3199310
   7.7379310  19.0889310  52.1789310  11.4569310  33.6019310  40.9769310
  12.0439310  33.4249310  40.2419310  10.8659310  34.2819310  40.6529310
  11.4559310  33.6659310  40.8409310  11.2969310  31.9569310  55.9719310
  10.5249310  31.9879310  56.5359310  11.9139310  32.5669310  56.3779310
  11.2769310  32.0389310  56.0969310  11.8189310  20.3079310  44.7329310
  12.4009310  20.7929310  44.1469310  11.2529310  20.9779310  45.1159310
  11.8209310  20.4559310  44.7069310   6.1979310  27.0839310  56.0409310
   5.3869310  27.1219310  55.5339310   6.5619310  26.2209310  55.8459310
   6.1409310  26.9789310  55.9509310   9.5119310  26.8139310  45.9619310
  10.3649310  26.4729310  45.6919310   9.5339310  26.7849310  46.9179310
   9.6239310  26.7659310  46.0489310   2.4419310  23.7249310  53.8669310
   1.6879310  23.3949310  53.3779310   2.2409310  23.5269310  54.7809310
   2.3199310  23.6569310  53.9209310   5.9919310  23.0479310  55.9359310
   5.2079310  23.0089310  56.4839310   6.6289310  22.4969310  56.3899310
   5.9729310  22.9729310  56.0639310   7.6579310  27.4849310  41.1769310
   8.0539310  27.8259310  41.9789310   8.1489310  27.9039310  40.4699310
   7.7709310  27.5819310  41.1889310   7.3869310  21.5709310  53.1389310
   8.0799310  21.7649310  53.7709310   6.7509310  22.2769310  53.2569310
   7.3939310  21.6859310  53.2349310   7.8519310  33.8409310  50.6139310
   7.3789310  34.6739310  50.6069310   7.3209310  33.2599310  50.0699310
   7.7229310  33.8729310  50.5439310   2.6319310  16.6849310  38.2349310
   3.5239310  16.4559310  37.9709310   2.1099310  16.5639310  37.4419310
   2.6799310  16.6409310  38.0999310   8.8599310  31.1979310  19.5379310
   7.9979310  31.5259310  19.2819310   8.7639310  30.2459310  19.5369310
   8.7369310  31.1179310  19.5049310   4.5169310  20.0739310  33.2249310
   4.6949310  19.1919310  33.5509310   4.8359310  20.6539310  33.9169310
   4.5809310  20.0349310  33.3559310   4.2049310  28.0699310  25.4709310
   3.7789310  27.4629310  24.8669310   3.5419310  28.7369310  25.6489310
   4.0659310  28.0779310  25.4169310   9.9569310  18.7019310  24.7239310
  10.0249310  17.7549310  24.5999310  10.8259310  18.9669310  25.0249310
  10.0769310  18.6149310  24.7469310  11.0759310  22.9929310  26.5649310
  10.2969310  23.1029310  27.1099310  11.4199310  23.8789310  26.4559310
  11.0199310  23.1199310  26.6209310   2.1719310  19.1209310  20.7129310
   1.9059310  18.6579310  21.5079310   2.1879310  18.4439310  20.0369310
   2.1399310  18.9749310  20.7289310   2.4069310  26.3089310  33.9969310
   2.2789310  25.4439310  34.3859310   2.8499310  26.1339310  33.1659310
   2.4469310  26.1759310  33.9399310   5.2829310  27.2609310  21.0159310
   6.0529310  27.2819310  21.5829310   5.6019310  26.8939310  20.1919310
   5.4219310  27.2169310  20.9829310  11.0189310  26.8979310  22.7459310
  10.6529310  27.5389310  23.3559310  10.2539310  26.4759310  22.3539310
  10.8739310  26.9259310  22.7739310   9.0009310  28.4979310  19.7629310
   9.0429310  28.3639310  18.8159310   9.8869310  28.7649310  20.0059310
   9.1199310  28.5149310  19.6729310   9.3439310  18.9279310  21.8509310
   9.4759310  18.7839310  22.7879310   8.4759310  19.3269310  21.7909310
   9.2499310  18.9599310  21.9639310   5.9939310  30.6649310  26.3519310
   6.1699310  31.5149310  25.9489310   5.2349310  30.3279310  25.8779310
   5.9199310  30.7309310  26.2399310   5.7839310  33.9899310  27.6039310
   6.3699310  34.7269310  27.4289310   5.0019310  34.1759310  27.0849310
   5.7589310  34.1079310  27.5149310   4.5729310  22.1299310  35.1409310
   5.1589310  22.4429310  35.8299310   3.8469310  22.7549310  35.1409310
   4.5549310  22.2499310  35.2289310   4.4649310  19.0249310  27.8019310
   3.5129310  18.9619310  27.8729310   4.7929310  18.2969310  28.3299310
   4.3849310  18.9239310  27.8789310   9.5939310  27.0329310  29.9239310
  10.0339310  27.5399310  30.6069310   8.9219310  26.5359310  30.3899310
   9.5649310  27.0339310  30.0709310  10.8089310  28.8009310  32.1519310
  10.0949310  29.4059310  31.9529310  11.5249310  29.3639310  32.4489310
  10.8099310  28.9499310  32.1649310   4.3209310  29.8619310  21.0899310
   4.6249310  28.9689310  21.2459310   4.8479310  30.4019310  21.6789310
   4.4269310  29.8169310  21.1849310   6.9439310  20.3499310  21.6659310
   7.0479310  20.6939310  22.5529310   6.8139310  21.1259310  21.1209310
   6.9409310  20.4929310  21.7099310   9.5859310  21.1979310  28.9929310
  10.4979310  21.2089310  29.2859310   9.5859310  20.6129310  28.2349310
   9.7029310  21.1239310  28.9339310   7.4309310  25.5349310  30.8439310
   6.5559310  25.2779310  30.5539310   7.7829310  24.7519310  31.2679310
   7.3639310  25.4019310  30.8609310   1.7759310  22.0349310  27.3069310
   1.8619310  21.2509310  27.8499310   2.2159310  22.7219310  27.8069310
   1.8429310  22.0229310  27.4399310  10.4379310  19.6529310  36.6469310
   9.5389310  19.3249310  36.6419310  10.7629310  19.4759310  35.7649310
  10.3639310  19.5879310  36.5339310  10.4539310  30.7749310  22.6429310
  10.5749310  31.6499310  22.2749310  10.6629310  30.1809310  21.9219310
  10.4959310  30.8109310  22.5029310   8.8719310  16.1739310  21.5209310
   8.9999310  17.0889310  21.2689310   7.9229310  16.0789310  21.6059310
   8.7669310  16.2789310  21.4999310   4.9019310  30.0589310  35.7769310
   5.4839310  29.8949310  36.5179310   4.3089310  30.7449310  36.0849310
   4.8999310  30.1259310  35.9109310  12.0469310  17.5119310  19.5219310
  11.8709310  18.3529310  19.1009310  11.2379310  17.0129310  19.4079310
  11.9209310  17.5559310  19.4539310  14.6159310  23.4399310  26.8999310
  14.6299310  23.1269310  27.8049310  14.5669310  24.3929310  26.9769310
  14.6119310  23.5219310  27.0259310   4.0089310  21.3759310  20.7829310
   3.3829310  20.6519310  20.8069310   4.2269310  21.5349310  21.7009310
   3.9569310  21.3039310  20.9029310  10.4749310  18.8909310  34.0779310
   9.6089310  18.7269310  33.7069310  11.0569310  18.2989310  33.5999310
  10.4389310  18.7939310  33.9689310  10.1809310  24.3409310  20.7839310
   9.7239310  24.0999310  21.5899310  11.1069310  24.2009310  20.9829310
  10.2409310  24.2919310  20.9129310   8.9249310  30.9609310  32.6219310
   8.5739310  30.8579310  33.5069310   9.0729310  31.9029310  32.5319310
   8.8989310  31.0679310  32.7239310  11.0619310  32.7279310  34.5009310
  11.2599310  32.3329310  35.3509310  10.3909310  33.3829310  34.6919310
  11.0009310  32.7609310  34.6339310   8.3059310  20.0579310  26.3719310
   9.0019310  19.6719310  25.8389310   7.6959310  19.3359310  26.5269310
   8.3169310  19.9159310  26.3229310   6.3799310  25.5069310  33.9139310
   5.8229310  25.1129310  33.2419310   5.8039310  26.1169310  34.3739310
   6.2349310  25.5349310  33.8869310  10.2939310  24.7679310  37.1079310
   9.4709310  25.1079310  36.7589310  10.1499310  24.7119310  38.0529310
  10.1709310  24.8039310  37.1839310   4.2069310  21.4939310  23.4469310
   3.3839310  21.7769310  23.8429310   4.8849310  21.8799310  24.0019310
   4.1889310  21.5789310  23.5689310   6.2259310  26.5949310  26.9949310
   6.7709310  27.0959310  27.6019310   5.5319310  27.2019310  26.7379310
   6.2069310  26.7359310  27.0399310   8.9299310  23.8409310  23.1879310
   8.8869310  24.4599310  23.9179310   8.5639310  23.0299310  23.5399310
   8.8779310  23.8169310  23.3269310   3.6799310  24.7049310  23.6669310
   3.0079310  24.0239310  23.6969310   3.7589310  24.9219310  22.7379310
   3.6039310  24.6459310  23.5519310   4.8659310  33.6839310  32.7849310
   4.3169310  33.6149310  32.0049310   5.2299310  32.8069310  32.9009310
   4.8429310  33.5629310  32.6999310   7.6949310  24.8509310  36.2959310
   7.0039310  24.2109310  36.4639310   7.4869310  25.2069310  35.4329310
   7.5799310  24.8139310  36.2069310   5.1189310  19.1529310  24.9419310
   4.8249310  19.8679310  24.3779310   4.8479310  19.4139310  25.8219310
   5.0469310  19.2779310  24.9819310   3.5729310  30.8089310  30.0239310
   3.5089310  30.2889310  30.8259310   4.1179310  31.5579310  30.2669310
   3.6339310  30.8379310  30.1579310   9.0719310  29.7049310  26.6429310
   8.1569310  29.7149310  26.3599310   9.1939310  28.8369310  27.0279310
   8.9699310  29.5949310  26.6559310   8.0319310  22.5259310  19.8929310
   8.5099310  22.1729310  19.1439310   8.5339310  23.2979310  20.1559310
   8.1569310  22.5799310  19.8309310   9.8839310  13.6059310  29.2919310
  10.0299310  14.0109310  30.1469310   8.9389310  13.6739310  29.1529310
   9.7819310  13.6659310  29.3839310   5.9719310  23.7409310  27.0059310
   6.4699310  23.5339310  26.2149310   6.1559310  24.6659310  27.1699310
   6.0589310  23.8329310  26.9259310  10.6599310  34.5129310  29.0739310
  10.5129310  33.5699310  29.1549310  11.3139310  34.7109310  29.7449310
  10.7249310  34.4169310  29.1699310  11.9929310  30.7909310  27.8599310
  11.1489310  31.2039310  28.0439310  11.8609310  29.8689310  28.0779310
  11.8679310  30.7259310  27.9109310   3.2929310  24.3369310  27.6289310
   2.8859310  25.0969310  27.2129310   4.1549310  24.2719310  27.2189310
   3.3509310  24.4259310  27.5229310   7.8299310  25.5759310  25.1109310
   8.5039310  25.9879310  25.6509310   7.0199310  26.0219310  25.3569310
   7.8129310  25.6859310  25.2109310   6.2869310  20.0769310  31.1529310
   5.8329310  20.5189310  30.4349310   5.7449310  20.2519310  31.9219310
   6.1599310  20.1559310  31.1589310  11.4519310  25.0049310  30.0969310
  11.0629310  24.5309310  30.8329310  10.9169310  25.7939310  30.0109310
  11.3339310  25.0449310  30.1799310   4.8259310  21.5529310  28.9629310
   5.4519310  22.0029310  28.3959310   4.6839310  20.7059310  28.5389310
   4.8879310  21.5019310  28.8359310   3.3609310  29.4299310  32.4619310
   3.7539310  30.2509310  32.7579310   2.4479310  29.4849310  32.7439310
   3.2949310  29.5419310  32.5359310   4.8499310  18.2979310  21.7189310
   4.0909310  18.5459310  21.1909310   5.4049310  19.0779310  21.7199310
   4.8239310  18.4299310  21.6519310   6.9719310  17.4819310  26.2319310
   6.3099310  17.8879310  25.6719310   7.6669310  17.2189310  25.6289310
   6.9759310  17.5009310  26.0829310   8.5849310  22.7139310  31.6109310
   8.3199310  22.0619310  32.2609310   8.8039310  22.2009310  30.8329310
   8.5789310  22.5649310  31.5949310   1.7809310  29.7139310  20.1189310
   2.6249310  29.6759310  20.5699310   2.0039310  29.9189310  19.2109310
   1.9179310  29.7349310  20.0609310   6.1439310  29.9589310  28.8469310
   6.2419310  30.2059310  27.9269310   5.2899310  30.3089310  29.0989310
   6.0469310  30.0349310  28.7619310   3.5339310  34.3729310  26.1859310
   3.3489310  33.5459310  25.7399310   3.2219310  35.0459310  25.5809310
   3.4699310  34.3529310  26.0509310   9.6379310  16.2429310  37.8109310
   9.0969310  15.7279310  38.4089310   9.1739310  17.0759310  37.7239310
   9.5099310  16.2839310  37.8769310   5.1219310  33.6079310  19.2759310
   5.2799310  34.4469310  18.8429310   5.3839310  33.7549310  20.1849310
   5.1759310  33.7339310  19.3369310   7.2319310  32.3849310  29.3859310
   6.6879310  32.9849310  28.8749310   6.8409310  31.5239310  29.2399310
   7.1129310  32.3519310  29.3019310  11.0069310  23.7939310  33.0089310
  10.1109310  23.4689310  32.9219310  10.9069310  24.6889310  33.3339310
  10.8789310  23.8669310  33.0399310   3.2029310  25.4809310  21.0469310
   3.9329310  26.1009310  21.0359310   2.4209310  26.0319310  21.0159310
   3.1959310  25.6309310  21.0409310   2.8349310  22.8619310  30.1629310
   2.3859310  22.1079310  30.5449310   3.5569310  22.4819310  29.6629310
   2.8699310  22.7169310  30.1479310   4.3699310  26.9859310  31.8749310
   4.0939310  27.8099310  32.2769310   5.3209310  26.9729310  31.9839310
   4.4569310  27.0899310  31.9399310   3.7259310  34.2089310  30.1239310
   4.5159310  34.7469310  30.0699310   3.1259310  34.6009310  29.4899310
   3.7499310  34.3279310  30.0359310   3.5089310  19.9429310  36.5649310
   3.0429310  20.5409310  37.1489310   4.1039310  20.5069310  36.0699310
   3.5249310  20.0909310  36.5759310   6.7159310  32.8389310  24.9759310
   6.3479310  33.4199310  25.6409310   7.6069310  33.1619310  24.8419310
   6.7829310  32.9549310  25.0439310   4.8209310  25.2759310  29.9609310
   4.5529310  25.9189310  30.6179310   4.0219310  25.0939310  29.4649310
   4.6839310  25.3349310  29.9809310   4.7979310  23.6099310  32.5229310
   4.6349310  23.9189310  31.6319310   3.9369310  23.3459310  32.8459310
   4.6669310  23.6159310  32.4509310   5.0199310  17.8309310  36.6609310
   5.0169310  17.5409310  35.7489310   4.3479310  18.5119310  36.6979310
   4.9329310  17.8809310  36.5489310   4.7299310  27.2729310  35.0589310
   3.9119310  27.1169310  34.5879310   4.7779310  28.2249310  35.1479310
   4.6319310  27.3749310  35.0099310   9.0799310  21.9689310  36.2899310
   9.7929310  21.3369310  36.3849310   9.5199310  22.8059310  36.1439310
   9.2269310  21.9949310  36.2829310  10.5529310  33.2459310  31.8589310
  10.8349310  33.1499310  32.7689310   9.7719310  33.7969310  31.9079310
  10.4889310  33.3039310  31.9819310  10.4739310  32.0239310  25.2939310
  10.5439310  31.3949310  26.0109310  10.5399310  31.4919310  24.5009310
  10.4909310  31.8759310  25.2839310   3.1219310  23.1789310  19.0639310
   3.1029310  23.8289310  19.7659310   3.4769310  22.3909310  19.4759310
   3.1649310  23.1619310  19.2059310   8.1049310  18.4289310  36.4849310
   8.1659310  18.0819310  35.5949310   7.1649310  18.4769310  36.6589310
   7.9919310  18.3909310  36.3929310   5.0839310  32.0579310  22.9339310
   4.3989310  31.9859310  23.5989310   5.8819310  32.2359310  23.4309310
   5.0979310  32.0709310  23.0829310   2.7949310  17.6819310  23.9159310
   2.5699310  18.4669310  24.4149310   3.6939310  17.8339310  23.6239310
   2.8819310  17.8019310  23.9429310   8.2219310  17.4019310  28.7859310
   9.0929310  17.0089310  28.8429310   8.1229310  17.6329310  27.8629310
   8.3209310  17.3809310  28.6749310   5.1299310  17.6689310  33.9199310
   4.8699310  16.8929310  33.4229310   6.0859310  17.6739310  33.8719310
   5.2189310  17.5699310  33.8499310   8.2469310  21.2669310  24.0339310
   8.0259310  21.0169310  24.9319310   9.0629310  20.8009310  23.8509310
   8.3229310  21.1749310  24.1259310   6.0929310  31.0299310  19.1809310
   5.6929310  31.8979310  19.2309310   5.6169310  30.5089310  19.8279310
   5.9809310  31.0749310  19.2699310   5.3499310  31.0219310  33.2419310
   5.1469310  30.7119310  34.1239310   5.8639310  30.3139310  32.8519310
   5.3899310  30.8909310  33.3049310  10.9379310  21.2909310  21.8699310
  10.1149310  20.8039310  21.8219310  10.6859310  22.1549310  22.1979310
  10.8009310  21.3389310  21.9059310   7.9949310  28.6239310  35.8889310
   7.3549310  28.0909310  36.3609310   7.9569310  28.3009310  34.9879310
   7.9079310  28.5139310  35.8339310  10.6619310  26.4609310  33.7059310
   9.7709310  26.6769310  33.9839310  10.9389310  27.2139310  33.1839310
  10.5829310  26.5849310  33.6749310   9.7299310  28.4829310  24.1379310
   9.7519310  28.5989310  25.0879310   9.9029310  29.3559310  23.7869310
   9.7549310  28.6099310  24.2149310   9.1049310  34.4229310  24.4449310
   8.8409310  34.3879310  23.5259310   9.7269310  33.7019310  24.5439310
   9.1509310  34.3259310  24.3399310   6.2789310  34.4189310  21.9559310
   5.7629310  33.7339310  22.3819310   5.7959310  35.2259310  22.1299310
   6.1509310  34.4339310  22.0329310   6.0159310  35.9619310  30.2569310
   6.7909310  35.8059310  29.7179310   5.9849310  36.9129310  30.3629310
   6.1109310  36.0639310  30.2019310   2.5859310  32.3739310  24.4859310
   2.3479310  31.5609310  24.9299310   1.7809310  32.6519310  24.0489310
   2.4529310  32.3059310  24.4869310   7.7789310  31.7939310  35.7929310
   8.0489310  30.8899310  35.9529310   6.8269310  31.7809310  35.8939310
   7.6919310  31.6769310  35.8269310   8.0889310  27.4999310  33.4899310
   7.4789310  26.7639310  33.5459310   7.6569310  28.1239310  32.9069310
   7.9559310  27.4849310  33.4229310   6.0509310  23.2799310  24.4549310
   6.6709310  23.7239310  23.8759310   5.2409310  23.7839310  24.3699310
   6.0269310  23.4019310  24.3699310   6.9439310  29.3589310  31.5089310
   6.7709310  29.2819310  30.5709310   7.7269310  29.9059310  31.5639310
   7.0219310  29.4189310  31.3959310   8.7899310  34.3099310  35.1189310
   9.1989310  34.4819310  35.9669310   8.5209310  33.3929310  35.1639310
   8.8079310  34.2149310  35.2329310   7.8039310  18.9719310  33.3869310
   7.5169310  19.7979310  33.7779310   7.5809310  19.0559310  32.4599310
   7.7379310  19.0889310  33.3189310  11.4569310  33.6019310  22.1169310
  12.0439310  33.4249310  21.3819310  10.8659310  34.2819310  21.7929310
  11.4559310  33.6659310  21.9809310  11.2969310  31.9569310  37.1119310
  10.5249310  31.9879310  37.6759310  11.9139310  32.5669310  37.5179310
  11.2769310  32.0389310  37.2369310  11.8189310  20.3079310  25.8729310
  12.4009310  20.7929310  25.2869310  11.2529310  20.9779310  26.2559310
  11.8209310  20.4559310  25.8469310   6.1979310  27.0839310  37.1809310
   5.3869310  27.1219310  36.6739310   6.5619310  26.2209310  36.9859310
   6.1409310  26.9789310  37.0909310   9.5119310  26.8139310  27.1019310
  10.3649310  26.4729310  26.8319310   9.5339310  26.7849310  28.0579310
   9.6239310  26.7659310  27.1889310   2.4419310  23.7249310  35.0069310
   1.6879310  23.3949310  34.5179310   2.2409310  23.5269310  35.9209310
   2.3199310  23.6569310  35.0609310   5.9919310  23.0479310  37.0759310
   5.2079310  23.0089310  37.6239310   6.6289310  22.4969310  37.5299310
   5.9729310  22.9729310  37.2039310  11.5879310  16.8399310  26.6099310
  10.9919310  16.4899310  27.2719310  12.3059310  16.2079310  26.5749310
  11.6039310  16.7149310  26.6899310   7.6579310  27.4849310  22.3169310
   8.0539310  27.8259310  23.1189310   8.1489310  27.9039310  21.6099310
   7.7709310  27.5819310  22.3289310   7.3869310  21.5709310  34.2789310
   8.0799310  21.7649310  34.9109310   6.7509310  22.2769310  34.3969310
   7.3939310  21.6859310  34.3749310   7.8519310  33.8409310  31.7539310
   7.3789310  34.6739310  31.7469310   7.3209310  33.2599310  31.2099310
   7.7229310  33.8729310  31.6839310   2.6319310  16.6849310  19.3749310
   3.5239310  16.4559310  19.1109310   2.1099310  16.5639310  18.5819310
   2.6799310  16.6409310  19.2399310   4.5169310  20.0739310  14.3649310
   4.6949310  19.1919310  14.6909310   4.8359310  20.6539310  15.0569310
   4.5809310  20.0349310  14.4959310   4.2049310  28.0699310   6.6109310
   3.7789310  27.4629310   6.0069310   3.5419310  28.7369310   6.7889310
   4.0659310  28.0779310   6.5569310   9.9569310  18.7019310   5.8639310
  10.0249310  17.7549310   5.7399310  10.8259310  18.9669310   6.1649310
  10.0769310  18.6149310   5.8869310  11.0759310  22.9929310   7.7049310
  10.2969310  23.1029310   8.2499310  11.4199310  23.8789310   7.5959310
  11.0199310  23.1199310   7.7609310   2.4069310  26.3089310  15.1369310
   2.2789310  25.4439310  15.5259310   2.8499310  26.1339310  14.3059310
   2.4469310  26.1759310  15.0799310  11.0189310  26.8979310   3.8859310
  10.6529310  27.5389310   4.4959310  10.2539310  26.4759310   3.4939310
  10.8739310  26.9259310   3.9139310   9.3439310  18.9279310   2.9909310
   9.4759310  18.7839310   3.9279310   8.4759310  19.3269310   2.9309310
   9.2499310  18.9599310   3.1039310   5.9939310  30.6649310   7.4919310
   6.1699310  31.5149310   7.0889310   5.2349310  30.3279310   7.0179310
   5.9199310  30.7309310   7.3799310   5.7839310  33.9899310   8.7439310
   6.3699310  34.7269310   8.5689310   5.0019310  34.1759310   8.2249310
   5.7589310  34.1079310   8.6549310   4.5729310  22.1299310  16.2809310
   5.1589310  22.4429310  16.9699310   3.8469310  22.7549310  16.2809310
   4.5549310  22.2499310  16.3689310   4.4649310  19.0249310   8.9419310
   3.5129310  18.9619310   9.0129310   4.7929310  18.2969310   9.4699310
   4.3849310  18.9239310   9.0189310   9.5939310  27.0329310  11.0639310
  10.0339310  27.5399310  11.7469310   8.9219310  26.5359310  11.5299310
   9.5649310  27.0339310  11.2109310  10.8089310  28.8009310  13.2919310
  10.0949310  29.4059310  13.0929310  11.5249310  29.3639310  13.5889310
  10.8099310  28.9499310  13.3049310   4.3209310  29.8619310   2.2299310
   4.6249310  28.9689310   2.3859310   4.8479310  30.4019310   2.8189310
   4.4269310  29.8169310   2.3249310   6.9439310  20.3499310   2.8059310
   7.0479310  20.6939310   3.6929310   6.8139310  21.1259310   2.2609310
   6.9409310  20.4929310   2.8499310   9.5859310  21.1979310  10.1329310
  10.4979310  21.2089310  10.4259310   9.5859310  20.6129310   9.3749310
   9.7029310  21.1239310  10.0739310   7.4309310  25.5349310  11.9839310
   6.5559310  25.2779310  11.6939310   7.7829310  24.7519310  12.4079310
   7.3639310  25.4019310  12.0009310   1.7759310  22.0349310   8.4469310
   1.8619310  21.2509310   8.9899310   2.2159310  22.7219310   8.9469310
   1.8429310  22.0229310   8.5799310  10.4379310  19.6529310  17.7869310
   9.5389310  19.3249310  17.7819310  10.7629310  19.4759310  16.9049310
  10.3639310  19.5879310  17.6739310  10.4539310  30.7749310   3.7829310
  10.5749310  31.6499310   3.4149310  10.6629310  30.1809310   3.0619310
  10.4959310  30.8109310   3.6429310   8.8719310  16.1739310   2.6609310
   8.9999310  17.0889310   2.4089310   7.9229310  16.0789310   2.7459310
   8.7669310  16.2789310   2.6399310   4.9019310  30.0589310  16.9169310
   5.4839310  29.8949310  17.6579310   4.3089310  30.7449310  17.2249310
   4.8999310  30.1259310  17.0509310  14.6159310  23.4399310   8.0399310
  14.6299310  23.1269310   8.9449310  14.5669310  24.3929310   8.1169310
  14.6119310  23.5219310   8.1659310   4.0089310  21.3759310   1.9229310
   3.3829310  20.6519310   1.9469310   4.2269310  21.5349310   2.8409310
   3.9569310  21.3039310   2.0429310  10.4749310  18.8909310  15.2179310
   9.6089310  18.7269310  14.8469310  11.0569310  18.2989310  14.7399310
  10.4389310  18.7939310  15.1089310  10.1809310  24.3409310   1.9239310
   9.7239310  24.0999310   2.7299310  11.1069310  24.2009310   2.1229310
  10.2409310  24.2919310   2.0529310   8.9249310  30.9609310  13.7619310
   8.5739310  30.8579310  14.6469310   9.0729310  31.9029310  13.6719310
   8.8989310  31.0679310  13.8639310  11.0619310  32.7279310  15.6409310
  11.2599310  32.3329310  16.4909310  10.3909310  33.3829310  15.8319310
  11.0009310  32.7609310  15.7739310   8.3059310  20.0579310   7.5119310
   9.0019310  19.6719310   6.9789310   7.6959310  19.3359310   7.6669310
   8.3169310  19.9159310   7.4629310   6.3799310  25.5069310  15.0539310
   5.8229310  25.1129310  14.3819310   5.8039310  26.1169310  15.5139310
   6.2349310  25.5349310  15.0269310  10.2939310  24.7679310  18.2479310
   9.4709310  25.1079310  17.8989310  10.1499310  24.7119310  19.1929310
  10.1709310  24.8039310  18.3239310   4.2069310  21.4939310   4.5869310
   3.3839310  21.7769310   4.9829310   4.8849310  21.8799310   5.1419310
   4.1889310  21.5789310   4.7089310   6.2259310  26.5949310   8.1349310
   6.7709310  27.0959310   8.7419310   5.5319310  27.2019310   7.8779310
   6.2069310  26.7359310   8.1799310   8.9299310  23.8409310   4.3279310
   8.8869310  24.4599310   5.0579310   8.5639310  23.0299310   4.6799310
   8.8779310  23.8169310   4.4669310   3.6799310  24.7049310   4.8069310
   3.0079310  24.0239310   4.8369310   3.7589310  24.9219310   3.8779310
   3.6039310  24.6459310   4.6919310   4.8659310  33.6839310  13.9249310
   4.3169310  33.6149310  13.1449310   5.2299310  32.8069310  14.0409310
   4.8429310  33.5629310  13.8399310   7.6949310  24.8509310  17.4359310
   7.0039310  24.2109310  17.6039310   7.4869310  25.2069310  16.5729310
   7.5799310  24.8139310  17.3469310   5.1189310  19.1529310   6.0819310
   4.8249310  19.8679310   5.5179310   4.8479310  19.4139310   6.9619310
   5.0469310  19.2779310   6.1219310   3.5729310  30.8089310  11.1639310
   3.5089310  30.2889310  11.9659310   4.1179310  31.5579310  11.4069310
   3.6339310  30.8379310  11.2979310   9.0719310  29.7049310   7.7829310
   8.1569310  29.7149310   7.4999310   9.1939310  28.8369310   8.1679310
   8.9699310  29.5949310   7.7959310   9.8839310  13.6059310  10.4319310
  10.0299310  14.0109310  11.2869310   8.9389310  13.6739310  10.2929310
   9.7819310  13.6659310  10.5239310   5.9719310  23.7409310   8.1459310
   6.4699310  23.5339310   7.3549310   6.1559310  24.6659310   8.3099310
   6.0589310  23.8329310   8.0659310  10.6599310  34.5129310  10.2139310
  10.5129310  33.5699310  10.2949310  11.3139310  34.7109310  10.8849310
  10.7249310  34.4169310  10.3099310  11.9929310  30.7909310   8.9999310
  11.1489310  31.2039310   9.1839310  11.8609310  29.8689310   9.2179310
  11.8679310  30.7259310   9.0509310   3.2929310  24.3369310   8.7689310
   2.8859310  25.0969310   8.3529310   4.1549310  24.2719310   8.3589310
   3.3509310  24.4259310   8.6629310   7.8299310  25.5759310   6.2509310
   8.5039310  25.9879310   6.7909310   7.0199310  26.0219310   6.4969310
   7.8129310  25.6859310   6.3509310   6.2869310  20.0769310  12.2929310
   5.8329310  20.5189310  11.5749310   5.7449310  20.2519310  13.0619310
   6.1599310  20.1559310  12.2989310  11.4519310  25.0049310  11.2369310
  11.0629310  24.5309310  11.9729310  10.9169310  25.7939310  11.1509310
  11.3339310  25.0449310  11.3199310   4.8259310  21.5529310  10.1029310
   5.4519310  22.0029310   9.5359310   4.6839310  20.7059310   9.6789310
   4.8879310  21.5019310   9.9759310   3.3609310  29.4299310  13.6019310
   3.7539310  30.2509310  13.8979310   2.4479310  29.4849310  13.8839310
   3.2949310  29.5419310  13.6759310   4.8499310  18.2979310   2.8589310
   4.0909310  18.5459310   2.3309310   5.4049310  19.0779310   2.8599310
   4.8239310  18.4299310   2.7919310   6.9719310  17.4819310   7.3719310
   6.3099310  17.8879310   6.8119310   7.6669310  17.2189310   6.7689310
   6.9759310  17.5009310   7.2229310   8.5849310  22.7139310  12.7509310
   8.3199310  22.0619310  13.4009310   8.8039310  22.2009310  11.9729310
   8.5789310  22.5649310  12.7349310   6.1439310  29.9589310   9.9869310
   6.2419310  30.2059310   9.0669310   5.2899310  30.3089310  10.2389310
   6.0469310  30.0349310   9.9019310   3.5339310  34.3729310   7.3259310
   3.3489310  33.5459310   6.8799310   3.2219310  35.0459310   6.7209310
   3.4699310  34.3529310   7.1909310   9.6379310  16.2429310  18.9509310
   9.0969310  15.7279310  19.5489310   9.1739310  17.0759310  18.8639310
   9.5099310  16.2839310  19.0169310   7.2319310  32.3849310  10.5259310
   6.6879310  32.9849310  10.0149310   6.8409310  31.5239310  10.3799310
   7.1129310  32.3519310  10.4419310  11.0069310  23.7939310  14.1489310
  10.1109310  23.4689310  14.0619310  10.9069310  24.6889310  14.4739310
  10.8789310  23.8669310  14.1799310   3.2029310  25.4809310   2.1869310
   3.9329310  26.1009310   2.1759310   2.4209310  26.0319310   2.1559310
   3.1959310  25.6309310   2.1809310   2.8349310  22.8619310  11.3029310
   2.3859310  22.1079310  11.6849310   3.5569310  22.4819310  10.8029310
   2.8699310  22.7169310  11.2879310   4.3699310  26.9859310  13.0149310
   4.0939310  27.8099310  13.4169310   5.3209310  26.9729310  13.1239310
   4.4569310  27.0899310  13.0799310   3.7259310  34.2089310  11.2639310
   4.5159310  34.7469310  11.2099310   3.1259310  34.6009310  10.6299310
   3.7499310  34.3279310  11.1759310   3.5089310  19.9429310  17.7049310
   3.0429310  20.5409310  18.2889310   4.1039310  20.5069310  17.2099310
   3.5249310  20.0909310  17.7159310   6.7159310  32.8389310   6.1159310
   6.3479310  33.4199310   6.7809310   7.6069310  33.1619310   5.9819310
   6.7829310  32.9549310   6.1839310   4.8209310  25.2759310  11.1009310
   4.5529310  25.9189310  11.7579310   4.0219310  25.0939310  10.6049310
   4.6839310  25.3349310  11.1209310   4.7979310  23.6099310  13.6629310
   4.6349310  23.9189310  12.7719310   3.9369310  23.3459310  13.9859310
   4.6669310  23.6159310  13.5909310   5.0199310  17.8309310  17.8009310
   5.0169310  17.5409310  16.8889310   4.3479310  18.5119310  17.8379310
   4.9329310  17.8809310  17.6889310   4.7299310  27.2729310  16.1989310
   3.9119310  27.1169310  15.7279310   4.7779310  28.2249310  16.2879310
   4.6319310  27.3749310  16.1499310   9.0799310  21.9689310  17.4299310
   9.7929310  21.3369310  17.5249310   9.5199310  22.8059310  17.2839310
   9.2269310  21.9949310  17.4229310  10.5529310  33.2459310  12.9989310
  10.8349310  33.1499310  13.9089310   9.7719310  33.7969310  13.0479310
  10.4889310  33.3039310  13.1219310  10.4739310  32.0239310   6.4339310
  10.5439310  31.3949310   7.1509310  10.5399310  31.4919310   5.6409310
  10.4909310  31.8759310   6.4239310   8.1049310  18.4289310  17.6249310
   8.1659310  18.0819310  16.7349310   7.1649310  18.4769310  17.7989310
   7.9919310  18.3909310  17.5329310   5.0839310  32.0579310   4.0739310
   4.3989310  31.9859310   4.7389310   5.8819310  32.2359310   4.5709310
   5.0979310  32.0709310   4.2229310   2.7949310  17.6819310   5.0559310
   2.5699310  18.4669310   5.5549310   3.6939310  17.8339310   4.7639310
   2.8819310  17.8019310   5.0829310   8.2219310  17.4019310   9.9259310
   9.0929310  17.0089310   9.9829310   8.1229310  17.6329310   9.0029310
   8.3209310  17.3809310   9.8149310   5.1299310  17.6689310  15.0599310
   4.8699310  16.8929310  14.5629310   6.0859310  17.6739310  15.0119310
   5.2189310  17.5699310  14.9899310   8.2469310  21.2669310   5.1739310
   8.0259310  21.0169310   6.0719310   9.0629310  20.8009310   4.9909310
   8.3229310  21.1749310   5.2659310   5.3499310  31.0219310  14.3819310
   5.1469310  30.7119310  15.2639310   5.8639310  30.3139310  13.9919310
   5.3899310  30.8909310  14.4449310  10.9379310  21.2909310   3.0099310
  10.1149310  20.8039310   2.9619310  10.6859310  22.1549310   3.3379310
  10.8009310  21.3389310   3.0459310   7.9949310  28.6239310  17.0289310
   7.3549310  28.0909310  17.5009310   7.9569310  28.3009310  16.1279310
   7.9079310  28.5139310  16.9739310  10.6619310  26.4609310  14.8459310
   9.7709310  26.6769310  15.1239310  10.9389310  27.2139310  14.3239310
  10.5829310  26.5849310  14.8149310   9.7299310  28.4829310   5.2779310
   9.7519310  28.5989310   6.2279310   9.9029310  29.3559310   4.9269310
   9.7549310  28.6099310   5.3549310   9.1049310  34.4229310   5.5849310
   8.8409310  34.3879310   4.6659310   9.7269310  33.7019310   5.6839310
   9.1509310  34.3259310   5.4799310   6.2789310  34.4189310   3.0959310
   5.7629310  33.7339310   3.5219310   5.7959310  35.2259310   3.2699310
   6.1509310  34.4339310   3.1729310   6.0159310  35.9619310  11.3969310
   6.7909310  35.8059310  10.8579310   5.9849310  36.9129310  11.5029310
   6.1109310  36.0639310  11.3419310   2.5859310  32.3739310   5.6259310
   2.3479310  31.5609310   6.0699310   1.7809310  32.6519310   5.1889310
   2.4529310  32.3059310   5.6269310   7.7789310  31.7939310  16.9329310
   8.0489310  30.8899310  17.0929310   6.8269310  31.7809310  17.0339310
   7.6919310  31.6769310  16.9669310   8.0889310  27.4999310  14.6299310
   7.4789310  26.7639310  14.6859310   7.6569310  28.1239310  14.0469310
   7.9559310  27.4849310  14.5629310   6.0509310  23.2799310   5.5949310
   6.6709310  23.7239310   5.0159310   5.2409310  23.7839310   5.5099310
   6.0269310  23.4019310   5.5099310   6.9439310  29.3589310  12.6489310
   6.7709310  29.2819310  11.7109310   7.7269310  29.9059310  12.7039310
   7.0219310  29.4189310  12.5359310   8.7899310  34.3099310  16.2589310
   9.1989310  34.4819310  17.1069310   8.5209310  33.3929310  16.3039310
   8.8079310  34.2149310  16.3729310   7.8039310  18.9719310  14.5269310
   7.5169310  19.7979310  14.9179310   7.5809310  19.0559310  13.5999310
   7.7379310  19.0889310  14.4589310  11.4569310  33.6019310   3.2569310
  12.0439310  33.4249310   2.5219310  10.8659310  34.2819310   2.9329310
  11.4559310  33.6659310   3.1209310  11.2969310  31.9569310  18.2519310
  10.5249310  31.9879310  18.8159310  11.9139310  32.5669310  18.6579310
  11.2769310  32.0389310  18.3769310  11.8189310  20.3079310   7.0129310
  12.4009310  20.7929310   6.4269310  11.2529310  20.9779310   7.3959310
  11.8209310  20.4559310   6.9869310   6.1979310  27.0839310  18.3209310
   5.3869310  27.1219310  17.8139310   6.5619310  26.2209310  18.1259310
   6.1409310  26.9789310  18.2309310   9.5119310  26.8139310   8.2419310
  10.3649310  26.4729310   7.9719310   9.5339310  26.7849310   9.1979310
   9.6239310  26.7659310   8.3289310   2.4419310  23.7249310  16.1469310
   1.6879310  23.3949310  15.6579310   2.2409310  23.5269310  17.0609310
   2.3199310  23.6569310  16.2009310   5.9919310  23.0479310  18.2159310
   5.2079310  23.0089310  18.7639310   6.6289310  22.4969310  18.6699310
   5.9729310  22.9729310  18.3439310  11.5879310  16.8399310   7.7499310
  10.9919310  16.4899310   8.4119310  12.3059310  16.2079310   7.7149310
  11.6039310  16.7149310   7.8299310   7.6579310  27.4849310   3.4569310
   8.0539310  27.8259310   4.2589310   8.1489310  27.9039310   2.7499310
   7.7709310  27.5819310   3.4689310   7.3869310  21.5709310  15.4189310
   8.0799310  21.7649310  16.0509310   6.7509310  22.2769310  15.5369310
   7.3939310  21.6859310  15.5149310   7.8519310  33.8409310  12.8939310
   7.3789310  34.6739310  12.8869310   7.3209310  33.2599310  12.3499310
   7.7229310  33.8729310  12.8239310   8.8599310  12.3309310  57.2579310
   7.9979310  12.6589310  57.0019310   8.7639310  11.3789310  57.2569310
   8.7369310  12.2509310  57.2249310   4.2049310   9.2029310  63.1909310
   3.7789310   8.5959310  62.5869310   3.5419310   9.8699310  63.3689310
   4.0659310   9.2109310  63.1369310  11.0759310   4.1259310  64.2849310
  10.2969310   4.2359310  64.8299310  11.4199310   5.0119310  64.1759310
  11.0199310   4.2529310  64.3409310   2.4069310   7.4419310  71.7169310
   2.2789310   6.5769310  72.1059310   2.8499310   7.2669310  70.8859310
   2.4469310   7.3089310  71.6599310   5.2829310   8.3939310  58.7359310
   6.0529310   8.4149310  59.3029310   5.6019310   8.0269310  57.9119310
   5.4219310   8.3499310  58.7029310  11.0189310   8.0309310  60.4659310
  10.6529310   8.6719310  61.0759310  10.2539310   7.6089310  60.0739310
  10.8739310   8.0589310  60.4939310   9.0009310   9.6309310  57.4829310
   9.0429310   9.4969310  56.5359310   9.8869310   9.8979310  57.7259310
   9.1199310   9.6479310  57.3929310   5.9939310  11.7979310  64.0719310
   6.1699310  12.6479310  63.6689310   5.2349310  11.4609310  63.5979310
   5.9199310  11.8639310  63.9599310   5.7839310  15.1229310  65.3239310
   6.3699310  15.8599310  65.1489310   5.0019310  15.3089310  64.8049310
   5.7589310  15.2409310  65.2349310   4.5729310   3.2629310  72.8609310
   5.1589310   3.5759310  73.5499310   3.8469310   3.8879310  72.8609310
   4.5549310   3.3829310  72.9489310   9.5939310   8.1659310  67.6439310
  10.0339310   8.6729310  68.3269310   8.9219310   7.6689310  68.1099310
   9.5649310   8.1669310  67.7909310  10.8089310   9.9339310  69.8719310
  10.0949310  10.5389310  69.6729310  11.5249310  10.4969310  70.1689310
  10.8099310  10.0829310  69.8849310   4.3209310  10.9949310  58.8099310
   4.6249310  10.1019310  58.9659310   4.8479310  11.5349310  59.3989310
   4.4269310  10.9499310  58.9049310   9.5859310   2.3309310  66.7129310
  10.4979310   2.3419310  67.0059310   9.5859310   1.7459310  65.9549310
   9.7029310   2.2569310  66.6539310   7.4309310   6.6679310  68.5639310
   6.5559310   6.4109310  68.2739310   7.7829310   5.8849310  68.9879310
   7.3639310   6.5349310  68.5809310   1.7759310   3.1679310  65.0269310
   1.8619310   2.3839310  65.5699310   2.2159310   3.8549310  65.5269310
   1.8429310   3.1559310  65.1599310  10.4539310  11.9079310  60.3629310
  10.5749310  12.7829310  59.9949310  10.6629310  11.3139310  59.6419310
  10.4959310  11.9439310  60.2229310   4.9019310  11.1919310  73.4969310
   5.4839310  11.0279310  74.2379310   4.3089310  11.8779310  73.8049310
   4.8999310  11.2589310  73.6309310  14.6159310   4.5729310  64.6199310
  14.6299310   4.2599310  65.5249310  14.5669310   5.5259310  64.6969310
  14.6119310   4.6549310  64.7459310   4.0089310   2.5089310  58.5029310
   3.3829310   1.7849310  58.5269310   4.2269310   2.6679310  59.4209310
   3.9569310   2.4369310  58.6229310  10.1809310   5.4739310  58.5039310
   9.7239310   5.2329310  59.3099310  11.1069310   5.3339310  58.7029310
  10.2409310   5.4249310  58.6329310   8.9249310  12.0939310  70.3419310
   8.5739310  11.9909310  71.2269310   9.0729310  13.0359310  70.2519310
   8.8989310  12.2009310  70.4439310  11.0619310  13.8609310  72.2209310
  11.2599310  13.4659310  73.0709310  10.3909310  14.5159310  72.4119310
  11.0009310  13.8939310  72.3539310   6.3799310   6.6399310  71.6339310
   5.8229310   6.2459310  70.9619310   5.8039310   7.2499310  72.0939310
   6.2349310   6.6679310  71.6069310   4.2069310   2.6269310  61.1669310
   3.3839310   2.9099310  61.5629310   4.8849310   3.0129310  61.7219310
   4.1889310   2.7119310  61.2889310   6.2259310   7.7279310  64.7149310
   6.7709310   8.2289310  65.3219310   5.5319310   8.3349310  64.4579310
   6.2069310   7.8689310  64.7599310   8.9299310   4.9739310  60.9079310
   8.8869310   5.5929310  61.6379310   8.5639310   4.1629310  61.2599310
   8.8779310   4.9499310  61.0469310   3.6799310   5.8379310  61.3869310
   3.0079310   5.1569310  61.4169310   3.7589310   6.0549310  60.4579310
   3.6039310   5.7789310  61.2719310   4.8659310  14.8169310  70.5049310
   4.3169310  14.7479310  69.7249310   5.2299310  13.9399310  70.6209310
   4.8429310  14.6959310  70.4199310   7.6949310   5.9839310  74.0159310
   7.0039310   5.3439310  74.1839310   7.4869310   6.3399310  73.1529310
   7.5799310   5.9469310  73.9269310   3.5729310  11.9419310  67.7439310
   3.5089310  11.4219310  68.5459310   4.1179310  12.6909310  67.9869310
   3.6339310  11.9709310  67.8779310   9.0719310  10.8379310  64.3629310
   8.1569310  10.8479310  64.0799310   9.1939310   9.9699310  64.7479310
   8.9699310  10.7279310  64.3759310   8.0319310   3.6589310  57.6129310
   8.5099310   3.3059310  56.8639310   8.5339310   4.4309310  57.8759310
   8.1569310   3.7129310  57.5509310   5.9719310   4.8739310  64.7259310
   6.4699310   4.6669310  63.9349310   6.1559310   5.7989310  64.8899310
   6.0589310   4.9659310  64.6459310  10.6599310  15.6459310  66.7939310
  10.5129310  14.7029310  66.8749310  11.3139310  15.8439310  67.4649310
  10.7249310  15.5499310  66.8899310  11.9929310  11.9239310  65.5799310
  11.1489310  12.3369310  65.7639310  11.8609310  11.0019310  65.7979310
  11.8679310  11.8589310  65.6309310   3.2929310   5.4699310  65.3489310
   2.8859310   6.2299310  64.9329310   4.1549310   5.4049310  64.9389310
   3.3509310   5.5589310  65.2429310   7.8299310   6.7089310  62.8309310
   8.5039310   7.1209310  63.3709310   7.0199310   7.1549310  63.0769310
   7.8129310   6.8189310  62.9309310  11.4519310   6.1379310  67.8169310
  11.0629310   5.6639310  68.5529310  10.9169310   6.9269310  67.7309310
  11.3339310   6.1779310  67.8999310   4.8259310   2.6859310  66.6829310
   5.4519310   3.1359310  66.1159310   4.6839310   1.8389310  66.2589310
   4.8879310   2.6349310  66.5559310   3.3609310  10.5629310  70.1819310
   3.7539310  11.3839310  70.4779310   2.4479310  10.6179310  70.4639310
   3.2949310  10.6749310  70.2559310   8.5849310   3.8469310  69.3309310
   8.3199310   3.1949310  69.9809310   8.8039310   3.3339310  68.5529310
   8.5789310   3.6979310  69.3149310   1.7809310  10.8469310  57.8389310
   2.6249310  10.8089310  58.2899310   2.0039310  11.0519310  56.9309310
   1.9179310  10.8679310  57.7809310   6.1439310  11.0919310  66.5669310
   6.2419310  11.3389310  65.6469310   5.2899310  11.4419310  66.8189310
   6.0469310  11.1679310  66.4819310   3.5339310  15.5059310  63.9059310
   3.3489310  14.6789310  63.4599310   3.2219310  16.1789310  63.3009310
   3.4699310  15.4859310  63.7709310   5.1219310  14.7409310  56.9959310
   5.2799310  15.5799310  56.5629310   5.3839310  14.8879310  57.9049310
   5.1759310  14.8669310  57.0569310   7.2319310  13.5179310  67.1059310
   6.6879310  14.1179310  66.5949310   6.8409310  12.6569310  66.9599310
   7.1129310  13.4849310  67.0219310  11.0069310   4.9269310  70.7289310
  10.1109310   4.6019310  70.6419310  10.9069310   5.8219310  71.0539310
  10.8789310   4.9999310  70.7599310   3.2029310   6.6139310  58.7669310
   3.9329310   7.2339310  58.7559310   2.4209310   7.1649310  58.7359310
   3.1959310   6.7639310  58.7609310   2.8349310   3.9949310  67.8829310
   2.3859310   3.2409310  68.2649310   3.5569310   3.6149310  67.3829310
   2.8699310   3.8499310  67.8679310   4.3699310   8.1189310  69.5949310
   4.0939310   8.9429310  69.9969310   5.3209310   8.1059310  69.7039310
   4.4569310   8.2229310  69.6599310   3.7259310  15.3419310  67.8439310
   4.5159310  15.8799310  67.7899310   3.1259310  15.7339310  67.2099310
   3.7499310  15.4609310  67.7559310   6.7159310  13.9719310  62.6959310
   6.3479310  14.5529310  63.3609310   7.6069310  14.2949310  62.5619310
   6.7829310  14.0879310  62.7639310   4.8209310   6.4089310  67.6809310
   4.5529310   7.0519310  68.3379310   4.0219310   6.2269310  67.1849310
   4.6839310   6.4679310  67.7009310   4.7979310   4.7429310  70.2429310
   4.6349310   5.0519310  69.3519310   3.9369310   4.4789310  70.5659310
   4.6669310   4.7489310  70.1709310   4.7299310   8.4059310  72.7789310
   3.9119310   8.2499310  72.3079310   4.7779310   9.3579310  72.8679310
   4.6319310   8.5079310  72.7299310   9.0799310   3.1019310  74.0099310
   9.7929310   2.4699310  74.1049310   9.5199310   3.9389310  73.8639310
   9.2269310   3.1279310  74.0029310  10.5529310  14.3789310  69.5789310
  10.8349310  14.2829310  70.4889310   9.7719310  14.9299310  69.6279310
  10.4889310  14.4369310  69.7019310  10.4739310  13.1569310  63.0139310
  10.5439310  12.5279310  63.7309310  10.5399310  12.6249310  62.2209310
  10.4909310  13.0089310  63.0039310   3.1219310   4.3119310  56.7839310
   3.1029310   4.9619310  57.4859310   3.4769310   3.5239310  57.1959310
   3.1649310   4.2949310  56.9259310   5.0839310  13.1909310  60.6539310
   4.3989310  13.1189310  61.3189310   5.8819310  13.3689310  61.1509310
   5.0979310  13.2039310  60.8029310   8.2469310   2.3999310  61.7539310
   8.0259310   2.1499310  62.6519310   9.0629310   1.9339310  61.5709310
   8.3229310   2.3079310  61.8459310   6.0929310  12.1629310  56.9009310
   5.6929310  13.0309310  56.9509310   5.6169310  11.6419310  57.5479310
   5.9809310  12.2079310  56.9899310   5.3499310  12.1549310  70.9619310
   5.1469310  11.8449310  71.8439310   5.8639310  11.4469310  70.5719310
   5.3899310  12.0239310  71.0249310  10.9379310   2.4239310  59.5899310
  10.1149310   1.9369310  59.5419310  10.6859310   3.2879310  59.9179310
  10.8009310   2.4719310  59.6259310   7.9949310   9.7569310  73.6089310
   7.3549310   9.2239310  74.0809310   7.9569310   9.4339310  72.7079310
   7.9079310   9.6469310  73.5539310  10.6619310   7.5939310  71.4259310
   9.7709310   7.8099310  71.7039310  10.9389310   8.3469310  70.9039310
  10.5829310   7.7179310  71.3949310   9.7299310   9.6159310  61.8579310
   9.7519310   9.7319310  62.8079310   9.9029310  10.4889310  61.5069310
   9.7549310   9.7429310  61.9349310   9.1049310  15.5559310  62.1649310
   8.8409310  15.5209310  61.2459310   9.7269310  14.8349310  62.2639310
   9.1509310  15.4589310  62.0599310   6.2789310  15.5519310  59.6759310
   5.7629310  14.8669310  60.1019310   5.7959310  16.3589310  59.8499310
   6.1509310  15.5669310  59.7529310   6.0159310  17.0949310  67.9769310
   6.7909310  16.9389310  67.4379310   5.9849310  18.0459310  68.0829310
   6.1109310  17.1969310  67.9219310   2.5859310  13.5069310  62.2059310
   2.3479310  12.6939310  62.6499310   1.7809310  13.7849310  61.7689310
   2.4529310  13.4389310  62.2069310   7.7789310  12.9269310  73.5129310
   8.0489310  12.0229310  73.6729310   6.8269310  12.9139310  73.6139310
   7.6919310  12.8099310  73.5469310   8.0889310   8.6329310  71.2099310
   7.4789310   7.8969310  71.2659310   7.6569310   9.2569310  70.6269310
   7.9559310   8.6179310  71.1429310   6.0509310   4.4129310  62.1749310
   6.6709310   4.8569310  61.5959310   5.2409310   4.9169310  62.0899310
   6.0269310   4.5349310  62.0899310   6.9439310  10.4919310  69.2289310
   6.7709310  10.4149310  68.2909310   7.7269310  11.0389310  69.2839310
   7.0219310  10.5519310  69.1159310   8.7899310  15.4429310  72.8389310
   9.1989310  15.6149310  73.6869310   8.5209310  14.5259310  72.8839310
   8.8079310  15.3479310  72.9529310  11.4569310  14.7349310  59.8369310
  12.0439310  14.5579310  59.1019310  10.8659310  15.4149310  59.5129310
  11.4559310  14.7989310  59.7009310   9.5119310   7.9469310  64.8219310
  10.3649310   7.6059310  64.5519310   9.5339310   7.9179310  65.7779310
   9.6239310   7.8989310  64.9089310   2.4419310   4.8579310  72.7269310
   1.6879310   4.5279310  72.2379310   2.2409310   4.6599310  73.6409310
   2.3199310   4.7899310  72.7809310   7.6579310   8.6179310  60.0369310
   8.0539310   8.9589310  60.8389310   8.1489310   9.0369310  59.3299310
   7.7709310   8.7149310  60.0489310   7.3869310   2.7039310  71.9989310
   8.0799310   2.8979310  72.6309310   6.7509310   3.4099310  72.1169310
   7.3939310   2.8189310  72.0949310   7.8519310  14.9739310  69.4739310
   7.3789310  15.8069310  69.4669310   7.3209310  14.3929310  68.9299310
   7.7229310  15.0059310  69.4039310   8.8599310  12.3309310  38.3979310
   7.9979310  12.6589310  38.1419310   8.7639310  11.3789310  38.3969310
   8.7369310  12.2509310  38.3649310   4.2049310   9.2029310  44.3309310
   3.7789310   8.5959310  43.7269310   3.5419310   9.8699310  44.5089310
   4.0659310   9.2109310  44.2769310  11.0759310   4.1259310  45.4249310
  10.2969310   4.2359310  45.9699310  11.4199310   5.0119310  45.3159310
  11.0199310   4.2529310  45.4809310   2.4069310   7.4419310  52.8569310
   2.2789310   6.5769310  53.2459310   2.8499310   7.2669310  52.0259310
   2.4469310   7.3089310  52.7999310   5.2829310   8.3939310  39.8759310
   6.0529310   8.4149310  40.4429310   5.6019310   8.0269310  39.0519310
   5.4219310   8.3499310  39.8429310  11.0189310   8.0309310  41.6059310
  10.6529310   8.6719310  42.2159310  10.2539310   7.6089310  41.2139310
  10.8739310   8.0589310  41.6339310   9.0009310   9.6309310  38.6229310
   9.0429310   9.4969310  37.6759310   9.8869310   9.8979310  38.8659310
   9.1199310   9.6479310  38.5329310   5.9939310  11.7979310  45.2119310
   6.1699310  12.6479310  44.8089310   5.2349310  11.4609310  44.7379310
   5.9199310  11.8639310  45.0999310   5.7839310  15.1229310  46.4639310
   6.3699310  15.8599310  46.2889310   5.0019310  15.3089310  45.9449310
   5.7589310  15.2409310  46.3749310   4.5729310   3.2629310  54.0009310
   5.1589310   3.5759310  54.6899310   3.8469310   3.8879310  54.0009310
   4.5549310   3.3829310  54.0889310   9.5939310   8.1659310  48.7839310
  10.0339310   8.6729310  49.4669310   8.9219310   7.6689310  49.2499310
   9.5649310   8.1669310  48.9309310  10.8089310   9.9339310  51.0119310
  10.0949310  10.5389310  50.8129310  11.5249310  10.4969310  51.3089310
  10.8099310  10.0829310  51.0249310   4.3209310  10.9949310  39.9499310
   4.6249310  10.1019310  40.1059310   4.8479310  11.5349310  40.5389310
   4.4269310  10.9499310  40.0449310   9.5859310   2.3309310  47.8529310
  10.4979310   2.3419310  48.1459310   9.5859310   1.7459310  47.0949310
   9.7029310   2.2569310  47.7939310   7.4309310   6.6679310  49.7039310
   6.5559310   6.4109310  49.4139310   7.7829310   5.8849310  50.1279310
   7.3639310   6.5349310  49.7209310   1.7759310   3.1679310  46.1669310
   1.8619310   2.3839310  46.7099310   2.2159310   3.8549310  46.6669310
   1.8429310   3.1559310  46.2999310  10.4539310  11.9079310  41.5029310
  10.5749310  12.7829310  41.1349310  10.6629310  11.3139310  40.7819310
  10.4959310  11.9439310  41.3629310   4.9019310  11.1919310  54.6369310
   5.4839310  11.0279310  55.3779310   4.3089310  11.8779310  54.9449310
   4.8999310  11.2589310  54.7709310  14.6159310   4.5729310  45.7599310
  14.6299310   4.2599310  46.6649310  14.5669310   5.5259310  45.8369310
  14.6119310   4.6549310  45.8859310   4.0089310   2.5089310  39.6429310
   3.3829310   1.7849310  39.6669310   4.2269310   2.6679310  40.5609310
   3.9569310   2.4369310  39.7629310  10.1809310   5.4739310  39.6439310
   9.7239310   5.2329310  40.4499310  11.1069310   5.3339310  39.8429310
  10.2409310   5.4249310  39.7729310   8.9249310  12.0939310  51.4819310
   8.5739310  11.9909310  52.3669310   9.0729310  13.0359310  51.3919310
   8.8989310  12.2009310  51.5839310   6.3799310   6.6399310  52.7739310
   5.8229310   6.2459310  52.1019310   5.8039310   7.2499310  53.2339310
   6.2349310   6.6679310  52.7469310  10.2939310   5.9009310  55.9679310
   9.4709310   6.2409310  55.6189310  10.1499310   5.8449310  56.9129310
  10.1709310   5.9369310  56.0439310   4.2069310   2.6269310  42.3069310
   3.3839310   2.9099310  42.7029310   4.8849310   3.0129310  42.8619310
   4.1889310   2.7119310  42.4289310   6.2259310   7.7279310  45.8549310
   6.7709310   8.2289310  46.4619310   5.5319310   8.3349310  45.5979310
   6.2069310   7.8689310  45.8999310   8.9299310   4.9739310  42.0479310
   8.8869310   5.5929310  42.7779310   8.5639310   4.1629310  42.3999310
   8.8779310   4.9499310  42.1869310   3.6799310   5.8379310  42.5269310
   3.0079310   5.1569310  42.5569310   3.7589310   6.0549310  41.5979310
   3.6039310   5.7789310  42.4119310   4.8659310  14.8169310  51.6449310
   4.3169310  14.7479310  50.8649310   5.2299310  13.9399310  51.7609310
   4.8429310  14.6959310  51.5599310   7.6949310   5.9839310  55.1559310
   7.0039310   5.3439310  55.3239310   7.4869310   6.3399310  54.2929310
   7.5799310   5.9469310  55.0669310   3.5729310  11.9419310  48.8839310
   3.5089310  11.4219310  49.6859310   4.1179310  12.6909310  49.1269310
   3.6339310  11.9709310  49.0179310   9.0719310  10.8379310  45.5029310
   8.1569310  10.8479310  45.2199310   9.1939310   9.9699310  45.8879310
   8.9699310  10.7279310  45.5159310   8.0319310   3.6589310  38.7529310
   8.5099310   3.3059310  38.0039310   8.5339310   4.4309310  39.0159310
   8.1569310   3.7129310  38.6909310   5.9719310   4.8739310  45.8659310
   6.4699310   4.6669310  45.0749310   6.1559310   5.7989310  46.0299310
   6.0589310   4.9659310  45.7859310  10.6599310  15.6459310  47.9339310
  10.5129310  14.7029310  48.0149310  11.3139310  15.8439310  48.6049310
  10.7249310  15.5499310  48.0299310  11.9929310  11.9239310  46.7199310
  11.1489310  12.3369310  46.9039310  11.8609310  11.0019310  46.9379310
  11.8679310  11.8589310  46.7709310   3.2929310   5.4699310  46.4889310
   2.8859310   6.2299310  46.0729310   4.1549310   5.4049310  46.0789310
   3.3509310   5.5589310  46.3829310   7.8299310   6.7089310  43.9709310
   8.5039310   7.1209310  44.5109310   7.0199310   7.1549310  44.2169310
   7.8129310   6.8189310  44.0709310  11.4519310   6.1379310  48.9569310
  11.0629310   5.6639310  49.6929310  10.9169310   6.9269310  48.8709310
  11.3339310   6.1779310  49.0399310   4.8259310   2.6859310  47.8229310
   5.4519310   3.1359310  47.2559310   4.6839310   1.8389310  47.3989310
   4.8879310   2.6349310  47.6959310   3.3609310  10.5629310  51.3219310
   3.7539310  11.3839310  51.6179310   2.4479310  10.6179310  51.6039310
   3.2949310  10.6749310  51.3959310   8.5849310   3.8469310  50.4709310
   8.3199310   3.1949310  51.1209310   8.8039310   3.3339310  49.6929310
   8.5789310   3.6979310  50.4549310   1.7809310  10.8469310  38.9789310
   2.6249310  10.8089310  39.4299310   2.0039310  11.0519310  38.0709310
   1.9179310  10.8679310  38.9209310   6.1439310  11.0919310  47.7069310
   6.2419310  11.3389310  46.7869310   5.2899310  11.4419310  47.9589310
   6.0469310  11.1679310  47.6219310   3.5339310  15.5059310  45.0459310
   3.3489310  14.6789310  44.5999310   3.2219310  16.1789310  44.4409310
   3.4699310  15.4859310  44.9109310   5.1219310  14.7409310  38.1359310
   5.2799310  15.5799310  37.7029310   5.3839310  14.8879310  39.0449310
   5.1759310  14.8669310  38.1969310   7.2319310  13.5179310  48.2459310
   6.6879310  14.1179310  47.7349310   6.8409310  12.6569310  48.0999310
   7.1129310  13.4849310  48.1619310  11.0069310   4.9269310  51.8689310
  10.1109310   4.6019310  51.7819310  10.9069310   5.8219310  52.1939310
  10.8789310   4.9999310  51.8999310   3.2029310   6.6139310  39.9069310
   3.9329310   7.2339310  39.8959310   2.4209310   7.1649310  39.8759310
   3.1959310   6.7639310  39.9009310   2.8349310   3.9949310  49.0229310
   2.3859310   3.2409310  49.4049310   3.5569310   3.6149310  48.5229310
   2.8699310   3.8499310  49.0079310   4.3699310   8.1189310  50.7349310
   4.0939310   8.9429310  51.1369310   5.3209310   8.1059310  50.8439310
   4.4569310   8.2229310  50.7999310   3.7259310  15.3419310  48.9839310
   4.5159310  15.8799310  48.9299310   3.1259310  15.7339310  48.3499310
   3.7499310  15.4609310  48.8959310   6.7159310  13.9719310  43.8359310
   6.3479310  14.5529310  44.5009310   7.6069310  14.2949310  43.7019310
   6.7829310  14.0879310  43.9039310   4.8209310   6.4089310  48.8209310
   4.5529310   7.0519310  49.4779310   4.0219310   6.2269310  48.3249310
   4.6839310   6.4679310  48.8409310   4.7979310   4.7429310  51.3829310
   4.6349310   5.0519310  50.4919310   3.9369310   4.4789310  51.7059310
   4.6669310   4.7489310  51.3109310   4.7299310   8.4059310  53.9189310
   3.9119310   8.2499310  53.4479310   4.7779310   9.3579310  54.0079310
   4.6319310   8.5079310  53.8699310   9.0799310   3.1019310  55.1499310
   9.7929310   2.4699310  55.2449310   9.5199310   3.9389310  55.0039310
   9.2269310   3.1279310  55.1429310  10.4739310  13.1569310  44.1539310
  10.5439310  12.5279310  44.8709310  10.5399310  12.6249310  43.3609310
  10.4909310  13.0089310  44.1439310   3.1219310   4.3119310  37.9239310
   3.1029310   4.9619310  38.6259310   3.4769310   3.5239310  38.3359310
   3.1649310   4.2949310  38.0659310   5.0839310  13.1909310  41.7939310
   4.3989310  13.1189310  42.4589310   5.8819310  13.3689310  42.2909310
   5.0979310  13.2039310  41.9429310   8.2469310   2.3999310  42.8939310
   8.0259310   2.1499310  43.7919310   9.0629310   1.9339310  42.7109310
   8.3229310   2.3079310  42.9859310   6.0929310  12.1629310  38.0409310
   5.6929310  13.0309310  38.0909310   5.6169310  11.6419310  38.6879310
   5.9809310  12.2079310  38.1299310   5.3499310  12.1549310  52.1019310
   5.1469310  11.8449310  52.9839310   5.8639310  11.4469310  51.7119310
   5.3899310  12.0239310  52.1649310  10.9379310   2.4239310  40.7299310
  10.1149310   1.9369310  40.6819310  10.6859310   3.2879310  41.0579310
  10.8009310   2.4719310  40.7659310   7.9949310   9.7569310  54.7489310
   7.3549310   9.2239310  55.2209310   7.9569310   9.4339310  53.8479310
   7.9079310   9.6469310  54.6939310  10.6619310   7.5939310  52.5659310
   9.7709310   7.8099310  52.8439310  10.9389310   8.3469310  52.0439310
  10.5829310   7.7179310  52.5349310   9.7299310   9.6159310  42.9979310
   9.7519310   9.7319310  43.9479310   9.9029310  10.4889310  42.6469310
   9.7549310   9.7429310  43.0749310   9.1049310  15.5559310  43.3049310
   8.8409310  15.5209310  42.3859310   9.7269310  14.8349310  43.4039310
   9.1509310  15.4589310  43.1999310   6.2789310  15.5519310  40.8159310
   5.7629310  14.8669310  41.2419310   5.7959310  16.3589310  40.9899310
   6.1509310  15.5669310  40.8929310   6.0159310  17.0949310  49.1169310
   6.7909310  16.9389310  48.5779310   5.9849310  18.0459310  49.2229310
   6.1109310  17.1969310  49.0619310   2.5859310  13.5069310  43.3459310
   2.3479310  12.6939310  43.7899310   1.7809310  13.7849310  42.9089310
   2.4529310  13.4389310  43.3469310   7.7789310  12.9269310  54.6529310
   8.0489310  12.0229310  54.8129310   6.8269310  12.9139310  54.7539310
   7.6919310  12.8099310  54.6869310   8.0889310   8.6329310  52.3499310
   7.4789310   7.8969310  52.4059310   7.6569310   9.2569310  51.7669310
   7.9559310   8.6179310  52.2829310   6.0509310   4.4129310  43.3149310
   6.6709310   4.8569310  42.7359310   5.2409310   4.9169310  43.2299310
   6.0269310   4.5349310  43.2299310   6.9439310  10.4919310  50.3689310
   6.7709310  10.4149310  49.4309310   7.7269310  11.0389310  50.4239310
   7.0219310  10.5519310  50.2559310   8.7899310  15.4429310  53.9789310
   9.1989310  15.6149310  54.8269310   8.5209310  14.5259310  54.0239310
   8.8079310  15.3479310  54.0929310  11.4569310  14.7349310  40.9769310
  12.0439310  14.5579310  40.2419310  10.8659310  15.4149310  40.6529310
  11.4559310  14.7989310  40.8409310  11.2969310  13.0899310  55.9719310
  10.5249310  13.1209310  56.5359310  11.9139310  13.6999310  56.3779310
  11.2769310  13.1719310  56.0969310   6.1979310   8.2169310  56.0409310
   5.3869310   8.2549310  55.5339310   6.5619310   7.3539310  55.8459310
   6.1409310   8.1119310  55.9509310   9.5119310   7.9469310  45.9619310
  10.3649310   7.6059310  45.6919310   9.5339310   7.9179310  46.9179310
   9.6239310   7.8989310  46.0489310   2.4419310   4.8579310  53.8669310
   1.6879310   4.5279310  53.3779310   2.2409310   4.6599310  54.7809310
   2.3199310   4.7899310  53.9209310   5.9919310   4.1809310  55.9359310
   5.2079310   4.1419310  56.4839310   6.6289310   3.6299310  56.3899310
   5.9729310   4.1059310  56.0639310   7.6579310   8.6179310  41.1769310
   8.0539310   8.9589310  41.9789310   8.1489310   9.0369310  40.4699310
   7.7709310   8.7149310  41.1889310   7.3869310   2.7039310  53.1389310
   8.0799310   2.8979310  53.7709310   6.7509310   3.4099310  53.2569310
   7.3939310   2.8189310  53.2349310   7.8519310  14.9739310  50.6139310
   7.3789310  15.8069310  50.6069310   7.3209310  14.3929310  50.0699310
   7.7229310  15.0059310  50.5439310   8.8599310  12.3309310  19.5379310
   7.9979310  12.6589310  19.2819310   8.7639310  11.3789310  19.5369310
   8.7369310  12.2509310  19.5049310   4.2049310   9.2029310  25.4709310
   3.7789310   8.5959310  24.8669310   3.5419310   9.8699310  25.6489310
   4.0659310   9.2109310  25.4169310  11.0759310   4.1259310  26.5649310
  10.2969310   4.2359310  27.1099310  11.4199310   5.0119310  26.4559310
  11.0199310   4.2529310  26.6209310   2.4069310   7.4419310  33.9969310
   2.2789310   6.5769310  34.3859310   2.8499310   7.2669310  33.1659310
   2.4469310   7.3089310  33.9399310   5.2829310   8.3939310  21.0159310
   6.0529310   8.4149310  21.5829310   5.6019310   8.0269310  20.1919310
   5.4219310   8.3499310  20.9829310  11.0189310   8.0309310  22.7459310
  10.6529310   8.6719310  23.3559310  10.2539310   7.6089310  22.3539310
  10.8739310   8.0589310  22.7739310   9.0009310   9.6309310  19.7629310
   9.0429310   9.4969310  18.8159310   9.8869310   9.8979310  20.0059310
   9.1199310   9.6479310  19.6729310   5.9939310  11.7979310  26.3519310
   6.1699310  12.6479310  25.9489310   5.2349310  11.4609310  25.8779310
   5.9199310  11.8639310  26.2399310   5.7839310  15.1229310  27.6039310
   6.3699310  15.8599310  27.4289310   5.0019310  15.3089310  27.0849310
   5.7589310  15.2409310  27.5149310   4.5729310   3.2629310  35.1409310
   5.1589310   3.5759310  35.8299310   3.8469310   3.8879310  35.1409310
   4.5549310   3.3829310  35.2289310   9.5939310   8.1659310  29.9239310
  10.0339310   8.6729310  30.6069310   8.9219310   7.6689310  30.3899310
   9.5649310   8.1669310  30.0709310  10.8089310   9.9339310  32.1519310
  10.0949310  10.5389310  31.9529310  11.5249310  10.4969310  32.4489310
  10.8099310  10.0829310  32.1649310   4.3209310  10.9949310  21.0899310
   4.6249310  10.1019310  21.2459310   4.8479310  11.5349310  21.6789310
   4.4269310  10.9499310  21.1849310   9.5859310   2.3309310  28.9929310
  10.4979310   2.3419310  29.2859310   9.5859310   1.7459310  28.2349310
   9.7029310   2.2569310  28.9339310   7.4309310   6.6679310  30.8439310
   6.5559310   6.4109310  30.5539310   7.7829310   5.8849310  31.2679310
   7.3639310   6.5349310  30.8609310   1.7759310   3.1679310  27.3069310
   1.8619310   2.3839310  27.8499310   2.2159310   3.8549310  27.8069310
   1.8429310   3.1559310  27.4399310  10.4539310  11.9079310  22.6429310
  10.5749310  12.7829310  22.2749310  10.6629310  11.3139310  21.9219310
  10.4959310  11.9439310  22.5029310   4.9019310  11.1919310  35.7769310
   5.4839310  11.0279310  36.5179310   4.3089310  11.8779310  36.0849310
   4.8999310  11.2589310  35.9109310  14.6159310   4.5729310  26.8999310
  14.6299310   4.2599310  27.8049310  14.5669310   5.5259310  26.9769310
  14.6119310   4.6549310  27.0259310   4.0089310   2.5089310  20.7829310
   3.3829310   1.7849310  20.8069310   4.2269310   2.6679310  21.7009310
   3.9569310   2.4369310  20.9029310  10.1809310   5.4739310  20.7839310
   9.7239310   5.2329310  21.5899310  11.1069310   5.3339310  20.9829310
  10.2409310   5.4249310  20.9129310   8.9249310  12.0939310  32.6219310
   8.5739310  11.9909310  33.5069310   9.0729310  13.0359310  32.5319310
   8.8989310  12.2009310  32.7239310  11.0619310  13.8609310  34.5009310
  11.2599310  13.4659310  35.3509310  10.3909310  14.5159310  34.6919310
  11.0009310  13.8939310  34.6339310   6.3799310   6.6399310  33.9139310
   5.8229310   6.2459310  33.2419310   5.8039310   7.2499310  34.3739310
   6.2349310   6.6679310  33.8869310  10.2939310   5.9009310  37.1079310
   9.4709310   6.2409310  36.7589310  10.1499310   5.8449310  38.0529310
  10.1709310   5.9369310  37.1839310   4.2069310   2.6269310  23.4469310
   3.3839310   2.9099310  23.8429310   4.8849310   3.0129310  24.0019310
   4.1889310   2.7119310  23.5689310   6.2259310   7.7279310  26.9949310
   6.7709310   8.2289310  27.6019310   5.5319310   8.3349310  26.7379310
   6.2069310   7.8689310  27.0399310   8.9299310   4.9739310  23.1879310
   8.8869310   5.5929310  23.9179310   8.5639310   4.1629310  23.5399310
   8.8779310   4.9499310  23.3269310   3.6799310   5.8379310  23.6669310
   3.0079310   5.1569310  23.6969310   3.7589310   6.0549310  22.7379310
   3.6039310   5.7789310  23.5519310   4.8659310  14.8169310  32.7849310
   4.3169310  14.7479310  32.0049310   5.2299310  13.9399310  32.9009310
   4.8429310  14.6959310  32.6999310   7.6949310   5.9839310  36.2959310
   7.0039310   5.3439310  36.4639310   7.4869310   6.3399310  35.4329310
   7.5799310   5.9469310  36.2069310   3.5729310  11.9419310  30.0239310
   3.5089310  11.4219310  30.8259310   4.1179310  12.6909310  30.2669310
   3.6339310  11.9709310  30.1579310   9.0719310  10.8379310  26.6429310
   8.1569310  10.8479310  26.3599310   9.1939310   9.9699310  27.0279310
   8.9699310  10.7279310  26.6559310   8.0319310   3.6589310  19.8929310
   8.5099310   3.3059310  19.1439310   8.5339310   4.4309310  20.1559310
   8.1569310   3.7129310  19.8309310   5.9719310   4.8739310  27.0059310
   6.4699310   4.6669310  26.2149310   6.1559310   5.7989310  27.1699310
   6.0589310   4.9659310  26.9259310  10.6599310  15.6459310  29.0739310
  10.5129310  14.7029310  29.1549310  11.3139310  15.8439310  29.7449310
  10.7249310  15.5499310  29.1699310  11.9929310  11.9239310  27.8599310
  11.1489310  12.3369310  28.0439310  11.8609310  11.0019310  28.0779310
  11.8679310  11.8589310  27.9109310   3.2929310   5.4699310  27.6289310
   2.8859310   6.2299310  27.2129310   4.1549310   5.4049310  27.2189310
   3.3509310   5.5589310  27.5229310   7.8299310   6.7089310  25.1109310
   8.5039310   7.1209310  25.6509310   7.0199310   7.1549310  25.3569310
   7.8129310   6.8189310  25.2109310  11.4519310   6.1379310  30.0969310
  11.0629310   5.6639310  30.8329310  10.9169310   6.9269310  30.0109310
  11.3339310   6.1779310  30.1799310   4.8259310   2.6859310  28.9629310
   5.4519310   3.1359310  28.3959310   4.6839310   1.8389310  28.5389310
   4.8879310   2.6349310  28.8359310   3.3609310  10.5629310  32.4619310
   3.7539310  11.3839310  32.7579310   2.4479310  10.6179310  32.7439310
   3.2949310  10.6749310  32.5359310   8.5849310   3.8469310  31.6109310
   8.3199310   3.1949310  32.2609310   8.8039310   3.3339310  30.8329310
   8.5789310   3.6979310  31.5949310   1.7809310  10.8469310  20.1189310
   2.6249310  10.8089310  20.5699310   2.0039310  11.0519310  19.2109310
   1.9179310  10.8679310  20.0609310   6.1439310  11.0919310  28.8469310
   6.2419310  11.3389310  27.9269310   5.2899310  11.4419310  29.0989310
   6.0469310  11.1679310  28.7619310   3.5339310  15.5059310  26.1859310
   3.3489310  14.6789310  25.7399310   3.2219310  16.1789310  25.5809310
   3.4699310  15.4859310  26.0509310   5.1219310  14.7409310  19.2759310
   5.2799310  15.5799310  18.8429310   5.3839310  14.8879310  20.1849310
   5.1759310  14.8669310  19.3369310   7.2319310  13.5179310  29.3859310
   6.6879310  14.1179310  28.8749310   6.8409310  12.6569310  29.2399310
   7.1129310  13.4849310  29.3019310  11.0069310   4.9269310  33.0089310
  10.1109310   4.6019310  32.9219310  10.9069310   5.8219310  33.3339310
  10.8789310   4.9999310  33.0399310   3.2029310   6.6139310  21.0469310
   3.9329310   7.2339310  21.0359310   2.4209310   7.1649310  21.0159310
   3.1959310   6.7639310  21.0409310   2.8349310   3.9949310  30.1629310
   2.3859310   3.2409310  30.5449310   3.5569310   3.6149310  29.6629310
   2.8699310   3.8499310  30.1479310   4.3699310   8.1189310  31.8749310
   4.0939310   8.9429310  32.2769310   5.3209310   8.1059310  31.9839310
   4.4569310   8.2229310  31.9399310   3.7259310  15.3419310  30.1239310
   4.5159310  15.8799310  30.0699310   3.1259310  15.7339310  29.4899310
   3.7499310  15.4609310  30.0359310   6.7159310  13.9719310  24.9759310
   6.3479310  14.5529310  25.6409310   7.6069310  14.2949310  24.8419310
   6.7829310  14.0879310  25.0439310   4.8209310   6.4089310  29.9609310
   4.5529310   7.0519310  30.6179310   4.0219310   6.2269310  29.4649310
   4.6839310   6.4679310  29.9809310   4.7979310   4.7429310  32.5229310
   4.6349310   5.0519310  31.6319310   3.9369310   4.4789310  32.8459310
   4.6669310   4.7489310  32.4509310   4.7299310   8.4059310  35.0589310
   3.9119310   8.2499310  34.5879310   4.7779310   9.3579310  35.1479310
   4.6319310   8.5079310  35.0099310   9.0799310   3.1019310  36.2899310
   9.7929310   2.4699310  36.3849310   9.5199310   3.9389310  36.1439310
   9.2269310   3.1279310  36.2829310  10.5529310  14.3789310  31.8589310
  10.8349310  14.2829310  32.7689310   9.7719310  14.9299310  31.9079310
  10.4889310  14.4369310  31.9819310  10.4739310  13.1569310  25.2939310
  10.5439310  12.5279310  26.0109310  10.5399310  12.6249310  24.5009310
  10.4909310  13.0089310  25.2839310   3.1219310   4.3119310  19.0639310
   3.1029310   4.9619310  19.7659310   3.4769310   3.5239310  19.4759310
   3.1649310   4.2949310  19.2059310   5.0839310  13.1909310  22.9339310
   4.3989310  13.1189310  23.5989310   5.8819310  13.3689310  23.4309310
   5.0979310  13.2039310  23.0829310   8.2469310   2.3999310  24.0339310
   8.0259310   2.1499310  24.9319310   9.0629310   1.9339310  23.8509310
   8.3229310   2.3079310  24.1259310   6.0929310  12.1629310  19.1809310
   5.6929310  13.0309310  19.2309310   5.6169310  11.6419310  19.8279310
   5.9809310  12.2079310  19.2699310   5.3499310  12.1549310  33.2419310
   5.1469310  11.8449310  34.1239310   5.8639310  11.4469310  32.8519310
   5.3899310  12.0239310  33.3049310  10.9379310   2.4239310  21.8699310
  10.1149310   1.9369310  21.8219310  10.6859310   3.2879310  22.1979310
  10.8009310   2.4719310  21.9059310   7.9949310   9.7569310  35.8889310
   7.3549310   9.2239310  36.3609310   7.9569310   9.4339310  34.9879310
   7.9079310   9.6469310  35.8339310  10.6619310   7.5939310  33.7059310
   9.7709310   7.8099310  33.9839310  10.9389310   8.3469310  33.1839310
  10.5829310   7.7179310  33.6749310   9.7299310   9.6159310  24.1379310
   9.7519310   9.7319310  25.0879310   9.9029310  10.4889310  23.7869310
   9.7549310   9.7429310  24.2149310   9.1049310  15.5559310  24.4449310
   8.8409310  15.5209310  23.5259310   9.7269310  14.8349310  24.5439310
   9.1509310  15.4589310  24.3399310   6.2789310  15.5519310  21.9559310
   5.7629310  14.8669310  22.3819310   5.7959310  16.3589310  22.1299310
   6.1509310  15.5669310  22.0329310   6.0159310  17.0949310  30.2569310
   6.7909310  16.9389310  29.7179310   5.9849310  18.0459310  30.3629310
   6.1109310  17.1969310  30.2019310   2.5859310  13.5069310  24.4859310
   2.3479310  12.6939310  24.9299310   1.7809310  13.7849310  24.0489310
   2.4529310  13.4389310  24.4869310   7.7789310  12.9269310  35.7929310
   8.0489310  12.0229310  35.9529310   6.8269310  12.9139310  35.8939310
   7.6919310  12.8099310  35.8269310   8.0889310   8.6329310  33.4899310
   7.4789310   7.8969310  33.5459310   7.6569310   9.2569310  32.9069310
   7.9559310   8.6179310  33.4229310   6.0509310   4.4129310  24.4549310
   6.6709310   4.8569310  23.8759310   5.2409310   4.9169310  24.3699310
   6.0269310   4.5349310  24.3699310   6.9439310  10.4919310  31.5089310
   6.7709310  10.4149310  30.5709310   7.7269310  11.0389310  31.5639310
   7.0219310  10.5519310  31.3959310   8.7899310  15.4429310  35.1189310
   9.1989310  15.6149310  35.9669310   8.5209310  14.5259310  35.1639310
   8.8079310  15.3479310  35.2329310  11.4569310  14.7349310  22.1169310
  12.0439310  14.5579310  21.3819310  10.8659310  15.4149310  21.7929310
  11.4559310  14.7989310  21.9809310  11.2969310  13.0899310  37.1119310
  10.5249310  13.1209310  37.6759310  11.9139310  13.6999310  37.5179310
  11.2769310  13.1719310  37.2369310   6.1979310   8.2169310  37.1809310
   5.3869310   8.2549310  36.6739310   6.5619310   7.3539310  36.9859310
   6.1409310   8.1119310  37.0909310   9.5119310   7.9469310  27.1019310
  10.3649310   7.6059310  26.8319310   9.5339310   7.9179310  28.0579310
   9.6239310   7.8989310  27.1889310   2.4419310   4.8579310  35.0069310
   1.6879310   4.5279310  34.5179310   2.2409310   4.6599310  35.9209310
   2.3199310   4.7899310  35.0609310   5.9919310   4.1809310  37.0759310
   5.2079310   4.1419310  37.6239310   6.6289310   3.6299310  37.5299310
   5.9729310   4.1059310  37.2039310   7.6579310   8.6179310  22.3169310
   8.0539310   8.9589310  23.1189310   8.1489310   9.0369310  21.6099310
   7.7709310   8.7149310  22.3289310   7.3869310   2.7039310  34.2789310
   8.0799310   2.8979310  34.9109310   6.7509310   3.4099310  34.3969310
   7.3939310   2.8189310  34.3749310   7.8519310  14.9739310  31.7539310
   7.3789310  15.8069310  31.7469310   7.3209310  14.3929310  31.2099310
   7.7229310  15.0059310  31.6839310   4.2049310   9.2029310   6.6109310
   3.7789310   8.5959310   6.0069310   3.5419310   9.8699310   6.7889310
   4.0659310   9.2109310   6.5569310  11.0759310   4.1259310   7.7049310
  10.2969310   4.2359310   8.2499310  11.4199310   5.0119310   7.5959310
  11.0199310   4.2529310   7.7609310   2.4069310   7.4419310  15.1369310
   2.2789310   6.5769310  15.5259310   2.8499310   7.2669310  14.3059310
   2.4469310   7.3089310  15.0799310  11.0189310   8.0309310   3.8859310
  10.6529310   8.6719310   4.4959310  10.2539310   7.6089310   3.4939310
  10.8739310   8.0589310   3.9139310   5.9939310  11.7979310   7.4919310
   6.1699310  12.6479310   7.0889310   5.2349310  11.4609310   7.0179310
   5.9199310  11.8639310   7.3799310   5.7839310  15.1229310   8.7439310
   6.3699310  15.8599310   8.5689310   5.0019310  15.3089310   8.2249310
   5.7589310  15.2409310   8.6549310   4.5729310   3.2629310  16.2809310
   5.1589310   3.5759310  16.9699310   3.8469310   3.8879310  16.2809310
   4.5549310   3.3829310  16.3689310   9.5939310   8.1659310  11.0639310
  10.0339310   8.6729310  11.7469310   8.9219310   7.6689310  11.5299310
   9.5649310   8.1669310  11.2109310  10.8089310   9.9339310  13.2919310
  10.0949310  10.5389310  13.0929310  11.5249310  10.4969310  13.5889310
  10.8099310  10.0829310  13.3049310   4.3209310  10.9949310   2.2299310
   4.6249310  10.1019310   2.3859310   4.8479310  11.5349310   2.8189310
   4.4269310  10.9499310   2.3249310   9.5859310   2.3309310  10.1329310
  10.4979310   2.3419310  10.4259310   9.5859310   1.7459310   9.3749310
   9.7029310   2.2569310  10.0739310   7.4309310   6.6679310  11.9839310
   6.5559310   6.4109310  11.6939310   7.7829310   5.8849310  12.4079310
   7.3639310   6.5349310  12.0009310   1.7759310   3.1679310   8.4469310
   1.8619310   2.3839310   8.9899310   2.2159310   3.8549310   8.9469310
   1.8429310   3.1559310   8.5799310  10.4539310  11.9079310   3.7829310
  10.5749310  12.7829310   3.4149310  10.6629310  11.3139310   3.0619310
  10.4959310  11.9439310   3.6429310   4.9019310  11.1919310  16.9169310
   5.4839310  11.0279310  17.6579310   4.3089310  11.8779310  17.2249310
   4.8999310  11.2589310  17.0509310  14.6159310   4.5729310   8.0399310
  14.6299310   4.2599310   8.9449310  14.5669310   5.5259310   8.1169310
  14.6119310   4.6549310   8.1659310   4.0089310   2.5089310   1.9229310
   3.3829310   1.7849310   1.9469310   4.2269310   2.6679310   2.8409310
   3.9569310   2.4369310   2.0429310  10.1809310   5.4739310   1.9239310
   9.7239310   5.2329310   2.7299310  11.1069310   5.3339310   2.1229310
  10.2409310   5.4249310   2.0529310   8.9249310  12.0939310  13.7619310
   8.5739310  11.9909310  14.6469310   9.0729310  13.0359310  13.6719310
   8.8989310  12.2009310  13.8639310  11.0619310  13.8609310  15.6409310
  11.2599310  13.4659310  16.4909310  10.3909310  14.5159310  15.8319310
  11.0009310  13.8939310  15.7739310   6.3799310   6.6399310  15.0539310
   5.8229310   6.2459310  14.3819310   5.8039310   7.2499310  15.5139310
   6.2349310   6.6679310  15.0269310  10.2939310   5.9009310  18.2479310
   9.4709310   6.2409310  17.8989310  10.1499310   5.8449310  19.1929310
  10.1709310   5.9369310  18.3239310   4.2069310   2.6269310   4.5869310
   3.3839310   2.9099310   4.9829310   4.8849310   3.0129310   5.1419310
   4.1889310   2.7119310   4.7089310   6.2259310   7.7279310   8.1349310
   6.7709310   8.2289310   8.7419310   5.5319310   8.3349310   7.8779310
   6.2069310   7.8689310   8.1799310   8.9299310   4.9739310   4.3279310
   8.8869310   5.5929310   5.0579310   8.5639310   4.1629310   4.6799310
   8.8779310   4.9499310   4.4669310   3.6799310   5.8379310   4.8069310
   3.0079310   5.1569310   4.8369310   3.7589310   6.0549310   3.8779310
   3.6039310   5.7789310   4.6919310   4.8659310  14.8169310  13.9249310
   4.3169310  14.7479310  13.1449310   5.2299310  13.9399310  14.0409310
   4.8429310  14.6959310  13.8399310   7.6949310   5.9839310  17.4359310
   7.0039310   5.3439310  17.6039310   7.4869310   6.3399310  16.5729310
   7.5799310   5.9469310  17.3469310   3.5729310  11.9419310  11.1639310
   3.5089310  11.4219310  11.9659310   4.1179310  12.6909310  11.4069310
   3.6339310  11.9709310  11.2979310   9.0719310  10.8379310   7.7829310
   8.1569310  10.8479310   7.4999310   9.1939310   9.9699310   8.1679310
   8.9699310  10.7279310   7.7959310   5.9719310   4.8739310   8.1459310
   6.4699310   4.6669310   7.3549310   6.1559310   5.7989310   8.3099310
   6.0589310   4.9659310   8.0659310  10.6599310  15.6459310  10.2139310
  10.5129310  14.7029310  10.2949310  11.3139310  15.8439310  10.8849310
  10.7249310  15.5499310  10.3099310  11.9929310  11.9239310   8.9999310
  11.1489310  12.3369310   9.1839310  11.8609310  11.0019310   9.2179310
  11.8679310  11.8589310   9.0509310   3.2929310   5.4699310   8.7689310
   2.8859310   6.2299310   8.3529310   4.1549310   5.4049310   8.3589310
   3.3509310   5.5589310   8.6629310   7.8299310   6.7089310   6.2509310
   8.5039310   7.1209310   6.7909310   7.0199310   7.1549310   6.4969310
   7.8129310   6.8189310   6.3509310  11.4519310   6.1379310  11.2369310
  11.0629310   5.6639310  11.9729310  10.9169310   6.9269310  11.1509310
  11.3339310   6.1779310  11.3199310   4.8259310   2.6859310  10.1029310
   5.4519310   3.1359310   9.5359310   4.6839310   1.8389310   9.6789310
   4.8879310   2.6349310   9.9759310   3.3609310  10.5629310  13.6019310
   3.7539310  11.3839310  13.8979310   2.4479310  10.6179310  13.8839310
   3.2949310  10.6749310  13.6759310   8.5849310   3.8469310  12.7509310
   8.3199310   3.1949310  13.4009310   8.8039310   3.3339310  11.9729310
   8.5789310   3.6979310  12.7349310   6.1439310  11.0919310   9.9869310
   6.2419310  11.3389310   9.0669310   5.2899310  11.4419310  10.2389310
   6.0469310  11.1679310   9.9019310   3.5339310  15.5059310   7.3259310
   3.3489310  14.6789310   6.8799310   3.2219310  16.1789310   6.7209310
   3.4699310  15.4859310   7.1909310   7.2319310  13.5179310  10.5259310
   6.6879310  14.1179310  10.0149310   6.8409310  12.6569310  10.3799310
   7.1129310  13.4849310  10.4419310  11.0069310   4.9269310  14.1489310
  10.1109310   4.6019310  14.0619310  10.9069310   5.8219310  14.4739310
  10.8789310   4.9999310  14.1799310   3.2029310   6.6139310   2.1869310
   3.9329310   7.2339310   2.1759310   2.4209310   7.1649310   2.1559310
   3.1959310   6.7639310   2.1809310   2.8349310   3.9949310  11.3029310
   2.3859310   3.2409310  11.6849310   3.5569310   3.6149310  10.8029310
   2.8699310   3.8499310  11.2879310   4.3699310   8.1189310  13.0149310
   4.0939310   8.9429310  13.4169310   5.3209310   8.1059310  13.1239310
   4.4569310   8.2229310  13.0799310   3.7259310  15.3419310  11.2639310
   4.5159310  15.8799310  11.2099310   3.1259310  15.7339310  10.6299310
   3.7499310  15.4609310  11.1759310   6.7159310  13.9719310   6.1159310
   6.3479310  14.5529310   6.7809310   7.6069310  14.2949310   5.9819310
   6.7829310  14.0879310   6.1839310   4.8209310   6.4089310  11.1009310
   4.5529310   7.0519310  11.7579310   4.0219310   6.2269310  10.6049310
   4.6839310   6.4679310  11.1209310   4.7979310   4.7429310  13.6629310
   4.6349310   5.0519310  12.7719310   3.9369310   4.4789310  13.9859310
   4.6669310   4.7489310  13.5909310   4.7299310   8.4059310  16.1989310
   3.9119310   8.2499310  15.7279310   4.7779310   9.3579310  16.2879310
   4.6319310   8.5079310  16.1499310   9.0799310   3.1019310  17.4299310
   9.7929310   2.4699310  17.5249310   9.5199310   3.9389310  17.2839310
   9.2269310   3.1279310  17.4229310  10.5529310  14.3789310  12.9989310
  10.8349310  14.2829310  13.9089310   9.7719310  14.9299310  13.0479310
  10.4889310  14.4369310  13.1219310  10.4739310  13.1569310   6.4339310
  10.5439310  12.5279310   7.1509310  10.5399310  12.6249310   5.6409310
  10.4909310  13.0089310   6.4239310   5.0839310  13.1909310   4.0739310
   4.3989310  13.1189310   4.7389310   5.8819310  13.3689310   4.5709310
   5.0979310  13.2039310   4.2229310   8.2469310   2.3999310   5.1739310
   8.0259310   2.1499310   6.0719310   9.0629310   1.9339310   4.9909310
   8.3229310   2.3079310   5.2659310   5.3499310  12.1549310  14.3819310
   5.1469310  11.8449310  15.2639310   5.8639310  11.4469310  13.9919310
   5.3899310  12.0239310  14.4449310  10.9379310   2.4239310   3.0099310
  10.1149310   1.9369310   2.9619310  10.6859310   3.2879310   3.3379310
  10.8009310   2.4719310   3.0459310   7.9949310   9.7569310  17.0289310
   7.3549310   9.2239310  17.5009310   7.9569310   9.4339310  16.1279310
   7.9079310   9.6469310  16.9739310  10.6619310   7.5939310  14.8459310
   9.7709310   7.8099310  15.1239310  10.9389310   8.3469310  14.3239310
  10.5829310   7.7179310  14.8149310   9.7299310   9.6159310   5.2779310
   9.7519310   9.7319310   6.2279310   9.9029310  10.4889310   4.9269310
   9.7549310   9.7429310   5.3549310   9.1049310  15.5559310   5.5849310
   8.8409310  15.5209310   4.6659310   9.7269310  14.8349310   5.6839310
   9.1509310  15.4589310   5.4799310   6.2789310  15.5519310   3.0959310
   5.7629310  14.8669310   3.5219310   5.7959310  16.3589310   3.2699310
   6.1509310  15.5669310   3.1729310   6.0159310  17.0949310  11.3969310
   6.7909310  16.9389310  10.8579310   5.9849310  18.0459310  11.5029310
   6.1109310  17.1969310  11.3419310   2.5859310  13.5069310   5.6259310
   2.3479310  12.6939310   6.0699310   1.7809310  13.7849310   5.1889310
   2.4529310  13.4389310   5.6269310   7.7789310  12.9269310  16.9329310
   8.0489310  12.0229310  17.0929310   6.8269310  12.9139310  17.0339310
   7.6919310  12.8099310  16.9669310   8.0889310   8.6329310  14.6299310
   7.4789310   7.8969310  14.6859310   7.6569310   9.2569310  14.0469310
   7.9559310   8.6179310  14.5629310   6.0509310   4.4129310   5.5949310
   6.6709310   4.8569310   5.0159310   5.2409310   4.9169310   5.5099310
   6.0269310   4.5349310   5.5099310   6.9439310  10.4919310  12.6489310
   6.7709310  10.4149310  11.7109310   7.7269310  11.0389310  12.7039310
   7.0219310  10.5519310  12.5359310   8.7899310  15.4429310  16.2589310
   9.1989310  15.6149310  17.1069310   8.5209310  14.5259310  16.3039310
   8.8079310  15.3479310  16.3729310  11.4569310  14.7349310   3.2569310
  12.0439310  14.5579310   2.5219310  10.8659310  15.4149310   2.9329310
  11.4559310  14.7989310   3.1209310  11.2969310  13.0899310  18.2519310
  10.5249310  13.1209310  18.8159310  11.9139310  13.6999310  18.6579310
  11.2769310  13.1719310  18.3769310   6.1979310   8.2169310  18.3209310
   5.3869310   8.2549310  17.8139310   6.5619310   7.3539310  18.1259310
   6.1409310   8.1119310  18.2309310   9.5119310   7.9469310   8.2419310
  10.3649310   7.6059310   7.9719310   9.5339310   7.9179310   9.1979310
   9.6239310   7.8989310   8.3289310   2.4419310   4.8579310  16.1469310
   1.6879310   4.5279310  15.6579310   2.2409310   4.6599310  17.0609310
   2.3199310   4.7899310  16.2009310   5.9919310   4.1809310  18.2159310
   5.2079310   4.1419310  18.7639310   6.6289310   3.6299310  18.6699310
   5.9729310   4.1059310  18.3439310   7.6579310   8.6179310   3.4569310
   8.0539310   8.9589310   4.2589310   8.1489310   9.0369310   2.7499310
   7.7709310   8.7149310   3.4689310   7.3869310   2.7039310  15.4189310
   8.0799310   2.8979310  16.0509310   6.7509310   3.4099310  15.5369310
   7.3939310   2.8189310  15.5149310   7.8519310  14.9739310  12.8939310
   7.3789310  15.8069310  12.8869310   7.3209310  14.3929310  12.3499310
   7.7229310  15.0059310  12.8239310
  80.8958620  69.2778620  76.1568620  90.0000000  90.0000000  90.0000000
